LAMMPS data file via write_data, version 7 Aug 2019, timestep = 440083

6000 atoms
2 atom types

-1.2671584285056898e+02 1.6586814539540816e+02 xlo xhi
-1.2671584285056898e+02 1.6586814539540816e+02 ylo yhi
-1.2671584285056898e+02 1.6586814539540816e+02 zlo zhi

Masses

1 1.008
2 15.9994

Atoms # atomic

3056 1 1.4475241618073170e+01 -7.6708688423371825e+01 -1.2604131435581037e+02 0 1 0
4572 2 1.4874045607232858e+01 -7.6074361817038408e+01 -1.2542551101863093e+02 0 1 0
2729 1 1.5555287311316960e+01 -7.6378926922553831e+01 -1.2474882732624657e+02 -1 1 0
324 2 3.9714310175624604e+01 -6.5910260192183159e+01 -1.2617749183827989e+02 0 0 1
5323 1 4.0184565651739319e+01 -6.6799529959203170e+01 -1.2641711218962759e+02 0 0 1
1183 1 -8.8766222738408572e+01 -1.2664264535028833e+02 -1.3906573150301114e+01 0 1 0
2345 1 -4.4346321753351404e+01 -4.6470683842821003e+01 -1.2353295246241467e+02 0 0 0
3937 1 9.5846601422761580e+01 -3.0201025989353369e+01 -1.2338305345223431e+02 1 0 0
469 1 -8.7597281681183532e+01 -1.7477257251935200e+01 -1.2583420448781234e+02 0 0 0
1140 2 -8.6950092787601875e+01 -1.6931816754214836e+01 -1.2537898537042736e+02 0 0 1
602 1 -8.7224160894860134e+01 -1.6209557476879681e+01 -1.2476111629377074e+02 0 0 1
4345 1 -7.2848144450129212e+01 -1.0778882792686537e+02 -1.1986648134680219e+02 0 1 0
3207 2 -7.2478209817402330e+01 -1.0712862652046282e+02 -1.2048791997087899e+02 0 1 1
4402 1 -7.2175620614377692e+01 -1.0755964766551364e+02 -1.2132933638905472e+02 0 1 0
2682 2 1.1692565957928889e+02 -8.7414326180665114e+01 -1.2262249158912034e+02 0 0 1
2240 1 1.1643345840856597e+02 -8.7760517881424292e+01 -1.2182016385154044e+02 0 0 1
3463 1 1.1769458522688217e+02 -8.6740406199673828e+01 -1.2248343015536545e+02 0 0 1
3417 2 -4.3801767541503523e+01 -4.6246162928814769e+01 -1.2266297704038766e+02 0 0 0
3932 1 -4.3249956335389655e+01 -4.5454796206880999e+01 -1.2257038212840779e+02 0 0 0
405 2 9.5839850841413522e+01 -2.9955404791969642e+01 -1.2239567815461048e+02 1 0 0
3188 1 9.6248963201286244e+01 -2.9062041477123103e+01 -1.2220647316819260e+02 1 0 0
3328 1 -1.2353849676284449e+02 -6.2553980090434180e+00 -1.2098842237163970e+02 0 0 1
974 1 -1.2199911232576927e+02 -5.4427331822209766e+00 -1.2096402683794854e+02 0 0 1
315 2 -1.2252446051548283e+02 -6.2189446534160737e+00 -1.2117016906147502e+02 0 0 1
4993 1 1.2929375980282722e+02 -2.4849450171434313e+00 -1.1967011195994561e+02 0 0 0
3908 1 1.2250578929469788e+02 -1.2594147779330414e+02 -1.1587735946556641e+02 -1 1 0
2067 2 1.2314414291747667e+02 -1.2641601733795807e+02 -1.1643173227204433e+02 0 1 0
1768 1 7.5560497407492193e+01 -1.1306767116967329e+02 -1.1622203686015138e+02 -1 1 -1
2328 2 7.6089849893813152e+01 -1.1249781691072559e+02 -1.1685898092669430e+02 -1 1 0
5978 1 7.5982331228737820e+01 -1.1273950752288998e+02 -1.1781771565421873e+02 0 1 0
3114 2 -5.7540980970262481e+01 -5.7644466277251055e+01 -1.1549402325612439e+02 0 0 0
5107 1 -5.6763508948778735e+01 -5.7102888134412780e+01 -1.1531457629373848e+02 0 0 0
640 1 1.6044751053016986e+02 -1.6179293189531563e+01 -1.1633573983213181e+02 -1 0 0
642 2 1.5983648199730837e+02 -1.6040458579595480e+01 -1.1557606616956068e+02 -1 0 0
2215 1 1.5773796056079871e+02 -1.4115809944003999e+01 -1.1739646165014048e+02 0 0 1
1769 1 1.5919356476530149e+02 -1.5334564809468134e+01 -1.1596998833016298e+02 -1 0 0
4311 2 1.5856290081513080e+02 -1.4252215246244361e+01 -1.1692577774654717e+02 -1 0 1
2927 1 1.5939495740921288e+02 -1.3756714307013411e+01 -1.1724124761000489e+02 0 0 1
3054 2 1.6113473867673250e+02 -1.2937250086343440e+01 -1.1758969197129065e+02 -1 0 1
5453 1 1.6148983071427111e+02 -1.2761532833904695e+01 -1.1662582803289057e+02 0 0 0
2146 1 1.6150907269347206e+02 -1.2332552164489940e+01 -1.1826314205542907e+02 -1 0 1
833 1 1.3008959996370507e+02 -2.7734338402263035e+00 -1.1823181780109748e+02 0 0 0
4995 2 1.3011959351395151e+02 -2.3497938497837936e+00 -1.1916178529970131e+02 0 0 0
4408 1 -8.9842890890234287e+01 1.6825612806427159e+00 -1.1757056993110623e+02 0 -1 1
4410 2 -9.0730688316130824e+01 1.4114446942905374e+00 -1.1707703486753927e+02 0 -1 1
2875 1 -9.0959339963581940e+01 4.8876243966491018e-01 -1.1701697555851842e+02 0 -1 1
3682 1 -4.7978036681023326e+00 1.4381143729243036e+01 -1.1708578994157044e+02 0 0 1
1923 2 -5.2199623926206584e+00 1.4661051011518708e+01 -1.1622671045224763e+02 0 0 1
929 1 -6.0228437598330231e+00 1.5688459920653514e+01 -1.1535830152780483e+02 0 0 0
1833 2 1.5302220814472227e+02 -1.2052546558579895e+02 -1.1476472213066657e+02 0 -1 0
2464 1 1.5203091498287242e+02 -1.2072259627558888e+02 -1.1459559742993095e+02 -1 0 0
32 1 1.5320802494406982e+02 -1.1952603416488229e+02 -1.1476106246204449e+02 0 0 0
5664 2 1.2757723874251485e+02 -8.3381309471185887e+01 -1.1178717098340296e+02 -1 0 1
5767 1 1.2825671851720989e+02 -8.2874935357335175e+01 -1.1227267688355847e+02 -1 0 1
2638 1 3.5680603518201110e+01 -7.0741479861060583e+01 -1.1231589404442660e+02 0 1 0
558 2 1.1022144411702058e+02 -6.0457345802473910e+01 -1.1438466589737821e+02 -1 0 0
1811 1 1.0999603957282096e+02 -6.0979944836350256e+01 -1.1359457131819678e+02 -1 0 0
4298 1 1.1068373427821714e+02 -5.9617565578285664e+01 -1.1426455415381280e+02 -1 0 0
3112 1 -5.8334740476017785e+01 -5.7152663692062546e+01 -1.1582356947711114e+02 0 0 0
3066 2 1.5707879668702773e+02 -2.3879857550278814e+01 -1.1165436983388676e+02 -1 0 1
3523 1 1.5446231602506563e+02 -2.2517887363970402e+01 -1.1317050488263911e+02 0 0 1
1363 1 1.5413473401146305e+02 -1.9735773293440985e+01 -1.1365015000555151e+02 -1 0 0
2696 1 1.5640884295545138e+02 -2.3250359850306666e+01 -1.1221462235800018e+02 -1 0 0
2127 2 1.5499970551735814e+02 -1.9738243978930996e+01 -1.1318053634620411e+02 -1 0 1
34 1 1.5542698029642574e+02 -2.1355354728734326e+01 -1.1265067851180322e+02 -1 0 1
3525 2 1.5527901211889636e+02 -2.2346821301627472e+01 -1.1268254768527694e+02 0 0 1
4667 1 1.6073586771550404e+02 -1.9242926080033030e+01 -1.1149369713550098e+02 -1 0 0
930 2 -1.2592494054499355e+02 -1.8801833967969472e+01 -1.1175419875810368e+02 0 0 0
5983 1 -1.2525424579682394e+02 -1.8874864764497062e+01 -1.1243403959846705e+02 0 0 1
4797 2 -1.8539410309662046e+01 -1.6329659243034129e+01 -1.1403284286424342e+02 0 0 0
3649 1 -1.8351816222096815e+01 -1.6259561786056707e+01 -1.1309885838792178e+02 0 1 0
3868 1 -1.8694877674261818e+01 -1.7298707885458100e+01 -1.1426532912515363e+02 0 1 0
1196 1 1.3100076801354052e+02 -1.7726576673352355e+01 -1.1473260901654017e+02 -1 1 0
210 2 1.3175831022165229e+02 -1.8155224012667645e+01 -1.1415671974717300e+02 -1 1 0
4573 1 1.3190973499234357e+02 -1.9100847819306054e+01 -1.1440400667892702e+02 -1 1 0
2354 1 1.5568445672553329e+02 -1.9029718725068193e+01 -1.1350379691921111e+02 0 0 1
2672 1 1.5769157606568135e+02 -1.8108656673236851e+01 -1.1394280701820971e+02 -1 0 1
1719 2 1.5668706261759669e+02 -1.8079651634906824e+01 -1.1437974163738087e+02 -1 0 1
2428 1 1.5656352158903340e+02 -1.7571864829041274e+01 -1.1522206538241758e+02 -1 0 1
5722 1 1.5947714006497174e+02 -1.6842475606703516e+01 -1.1442314338154601e+02 0 0 0
1440 2 1.5920743148367981e+02 -1.7643968687622831e+01 -1.1361974668407811e+02 -1 0 0
1226 1 1.5989482675253831e+02 -1.8092278142689082e+01 -1.1303892903507216e+02 -1 0 0
4530 2 1.6125585681022463e+02 -1.8690406633769257e+01 -1.1220823600771845e+02 -1 0 0
4433 1 1.6221644152638876e+02 -1.8465707150222897e+01 -1.1199303868400165e+02 -1 0 1
2326 1 1.6373362822430423e+02 -1.6351644002112891e+01 -1.1238477975260120e+02 -1 0 1
388 1 1.6329701766244264e+02 -1.5610119465394007e+01 -1.1386328227863692e+02 -1 0 0
1720 1 1.6476833977711098e+02 -1.8241358407216723e+01 -1.1173007431852743e+02 -1 0 0
2430 2 1.6187825089003329e+02 -1.2588553420961077e+01 -1.1499289666913882e+02 -1 0 1
5692 1 1.6087460345653037e+02 -1.2549953368047980e+01 -1.1467320980584299e+02 -1 0 1
1718 1 1.6264972372875744e+02 -1.2577036080537894e+01 -1.1433811851766806e+02 -1 0 1
5338 1 1.6351316675799475e+02 -1.3937217109463248e+01 -1.1254275390914748e+02 0 0 0
5516 1 1.6345628862585218e+02 -1.2286598335700475e+01 -1.1188009923675831e+02 0 0 0
1131 2 1.6322803532909555e+02 -1.2915946275344268e+01 -1.1258026910145213e+02 0 0 0
5820 2 1.6362097910834129e+02 -1.5492397193906527e+01 -1.1292334211224806e+02 -1 0 1
1283 1 1.0800217547500910e+02 1.0174378777708085e+01 -1.1390969909585132e+02 -1 0 1
2925 2 1.0785404190696977e+02 1.0971098888845006e+01 -1.1336954996685044e+02 -1 1 1
4696 1 1.0810898240479239e+02 1.0973823835632487e+01 -1.1243711666440787e+02 -1 1 1
1875 2 -5.3282007119012746e+00 1.4056412183136445e+01 -1.1162828151753719e+02 0 0 0
2110 1 -5.1930012601588231e+00 1.3726500670375970e+01 -1.1294368986930169e+02 1 0 1
3122 1 -5.4802476612697433e+00 1.2115486316854685e+01 -1.1427520452909697e+02 0 0 0
3336 2 -5.3250582375390820e+00 1.3016865576262518e+01 -1.1394529266996224e+02 0 0 0
5003 1 -5.2356953134553095e+00 1.4057253470678631e+01 -1.1543675975222098e+02 0 0 1
3290 1 -5.6355658626832792e+00 1.5077717625747823e+01 -1.1175824816262119e+02 0 0 0
5483 1 -6.4025897223783659e+00 1.6886723473328885e+01 -1.1154953465784061e+02 0 0 1
1973 1 -5.7487806885466313e+00 1.7329852615232426e+01 -1.1527364281982784e+02 0 0 1
5933 1 -6.1842753157033883e+00 1.6340502069090036e+01 -1.1332909671519289e+02 0 0 0
2031 2 -6.2074352711993868e+00 1.6586233401486140e+01 -1.1483372725773280e+02 0 0 1
3564 2 -6.1083808255284282e+00 1.6219310513835325e+01 -1.1223477446087516e+02 0 0 1
1778 1 8.0758670182650548e+01 -1.1962758113310704e+02 -1.0965775172556675e+02 0 1 0
525 2 8.1539118614886348e+01 -1.1948999253606436e+02 -1.0904710717641693e+02 0 1 0
2350 1 8.1737282174375309e+01 -1.1857566418113615e+02 -1.0870229678949519e+02 0 1 0
2378 1 1.2715298374942901e+02 -8.3019322758293555e+01 -1.1103840660752013e+02 -1 0 1
1065 2 3.5520993052445988e+01 -7.0324733126148743e+01 -1.1138371563886403e+02 0 1 0
304 1 3.4809891637637151e+01 -6.9623757717955485e+01 -1.1128824176729603e+02 0 1 0
5800 1 1.5646939186891197e+02 -2.4484775487496904e+01 -1.1111423906576388e+02 -1 0 0
3551 1 1.5890453126048081e+02 -2.3353106703380092e+01 -1.1084599016659702e+02 0 0 0
5962 1 1.6001647798024041e+02 -2.3669874343794802e+01 -1.0975267466838500e+02 0 0 0
3856 1 -1.2451605967657255e+02 -2.0054166299022739e+01 -1.0863323925589113e+02 1 0 1
1425 2 -1.2504348670590636e+02 -2.0026052818647699e+01 -1.0944241049126295e+02 0 0 1
1508 1 -1.2607782909666369e+02 -2.0197331808527892e+01 -1.0907521712823400e+02 1 0 1
3741 2 1.5956272962137112e+02 -2.2935885583014127e+01 -1.1022707144012161e+02 0 0 1
2915 1 1.5960340230898115e+02 -2.1185000998208608e+01 -1.1003148043743386e+02 -1 0 0
1439 1 1.5854865662990269e+02 -1.9813954808950513e+01 -1.0971197767150849e+02 -1 0 0
5817 2 1.5952703475564570e+02 -2.0223862299329681e+01 -1.0977848789670321e+02 -1 0 0
2600 1 1.6050909810260740e+02 -2.0032716105534021e+01 -1.0841899988618550e+02 0 0 0
3107 1 1.6502599280929869e+02 -2.1327494382017520e+01 -1.0786344310714782e+02 -1 0 0
3969 2 1.6525700931036093e+02 -2.0634972469988682e+01 -1.0854513206705228e+02 0 0 0
679 1 1.6466205358994435e+02 -1.9794706118079517e+01 -1.0856044091347897e+02 -1 0 0
3544 1 -1.2562528360883562e+02 -1.9007093085762008e+01 -1.1077156786616064e+02 0 0 1
3967 1 1.5630359107582100e+02 -1.8757046567913719e+01 -1.0958661142626340e+02 0 0 0
1722 2 1.5715792343032709e+02 -1.8959639331676271e+01 -1.0907155793255255e+02 -1 0 0
1702 1 1.5753291840982072e+02 -1.8212466117487836e+01 -1.0851714952836400e+02 -1 0 1
1828 1 1.5826048951029506e+02 -1.5997443263317464e+01 -1.0779762535025117e+02 -1 0 0
4196 1 1.6294249730245960e+02 -1.7858879602869663e+01 -1.0802582652478847e+02 -1 0 0
5088 2 1.6394107878214865e+02 -1.7712536461720163e+01 -1.1152130885776863e+02 -1 0 1
3033 2 1.6384463693775578e+02 -1.8019124972368644e+01 -1.0829321087818055e+02 0 0 1
3052 1 1.6372985069143581e+02 -1.7935065036899474e+01 -1.1049262118480848e+02 -1 0 1
3718 1 1.6425176031683176e+02 -1.7156145507626633e+01 -1.0825734738854050e+02 -1 0 1
113 1 -8.3335028733514349e+01 -1.1920587873502569e+01 -1.0752606897273080e+02 1 -1 1
1787 1 -5.7655603755966069e+00 1.3467015308313051e+01 -1.1096670066818780e+02 0 0 0
3617 1 -9.5783272621620910e+01 1.7666654374587125e+01 -1.0834926172262081e+02 0 0 0
5193 2 -9.5938967788037189e+01 1.8486089541885690e+01 -1.0887132056391260e+02 0 0 0
2213 1 1.3230840492919413e+01 -9.6542549358259308e+01 -1.0394045108870363e+02 0 1 1
1098 2 1.3121967391327161e+01 -9.5579414442947893e+01 -1.0420820550081004e+02 0 1 1
5974 1 1.3986849966325110e+01 -9.5047506145551154e+01 -1.0433248349028902e+02 0 0 1
5176 1 -3.3110632583730805e+01 -8.9388056350796177e+01 -1.0550274008549617e+02 0 1 1
3772 1 -3.2981699087917093e+01 -9.0570035233174480e+01 -1.0663076881320146e+02 0 0 1
297 2 -3.3037465847722885e+01 -9.0306984803590467e+01 -1.0570634719220897e+02 0 1 1
3146 1 -3.2820277129770119e+01 -9.1398764308614943e+01 -1.0427639223598945e+02 1 1 1
792 2 3.6960446043171288e+01 -7.2939823770839524e+01 -1.0409814921415840e+02 -1 1 1
3619 1 3.7093740097451729e+01 -7.2092511453424521e+01 -1.0459125761656414e+02 -1 1 1
3141 2 1.4934669632715466e+02 -4.0999701642896085e+01 -1.0419637849365753e+02 0 0 0
3859 1 1.4882964743858295e+02 -4.1534481609641972e+01 -1.0492590059830908e+02 0 0 0
246 2 1.6098143057850174e+02 -1.9674359402476711e+01 -1.0749915737337599e+02 0 0 1
2302 1 1.6166787047597259e+02 -2.0355342336297994e+01 -1.0731362571660333e+02 0 0 0
1971 2 1.5826118002367625e+02 -1.6963238577589195e+01 -1.0764684880081874e+02 -1 0 1
3826 1 1.5896454305505520e+02 -1.7247078004332977e+01 -1.0689773741991951e+02 -1 0 1
393 2 1.6001482882660119e+02 -1.7464152029604520e+01 -1.0571519850133055e+02 -1 0 0
2026 1 1.6034300456088332e+02 -1.7365895721489935e+01 -1.0480162196137042e+02 -1 0 0
4700 1 1.6025456781957635e+02 -1.8361823874724109e+01 -1.0617094054482106e+02 -1 0 1
100 1 -8.2974964434050634e+01 -1.3420806304243655e+01 -1.0675797021870927e+02 1 0 1
102 2 -8.2970333276581158e+01 -1.2445073253119261e+01 -1.0676767064279599e+02 1 0 1
4846 1 1.1829394932229866e+02 -4.8864513739707292e+00 -1.0479154945063715e+02 0 0 1
115 1 -6.4253688914900494e+01 1.8411783127336690e+01 -1.0672768173440429e+02 -1 0 0
2564 1 3.6139770268274731e+01 -1.2559146719631316e+02 -1.0318546658107982e+02 0 0 0
5268 2 3.5883007608818247e+01 -1.2518386259838076e+02 -1.0232595792664959e+02 0 0 0
4292 1 3.5880344506819739e+01 -1.2582125789798643e+02 -1.0147243120540602e+02 0 1 0
5737 1 3.6122508000214907e+01 -1.2406601803026201e+02 -1.0156014815459248e+02 0 0 0
779 1 3.7971480789013043e+01 -1.2630436565907345e+02 -1.0109953371721772e+02 0 1 0
236 1 3.7659965380553444e+01 -1.2322875170473634e+02 -1.0076733113047163e+02 0 0 0
3300 2 3.6328071328587015e+01 -1.2300862699839234e+02 -1.0104495956862279e+02 0 0 0
4896 2 3.8789045668045986e+01 -1.2349672663937918e+02 -1.0042675153889340e+02 0 0 1
4701 2 3.8914706857932742e+01 -1.2592675880237765e+02 -1.0106469949088022e+02 0 0 1
3374 1 3.8914953655666494e+01 -1.2469545784109343e+02 -1.0062947802599538e+02 0 0 1
97 1 3.9609282008943069e+01 -1.2666332060802313e+02 -1.0123129764462915e+02 1 1 1
3665 1 3.5854253156588328e+01 -1.2218267344855167e+02 -1.0107081724291997e+02 0 1 0
468 2 -1.1620191457226565e+02 -1.0710831244302416e+02 -1.0099299889437569e+02 1 1 1
3316 1 -1.1642365686675130e+02 -1.0632367444284216e+02 -1.0030304280274973e+02 1 1 1
4613 1 -1.1539484508466350e+02 -1.0756351440979299e+02 -1.0141577173300050e+02 0 1 1
2575 1 -3.1655904691545331e+01 -9.2438636717927693e+01 -1.0332836712330969e+02 0 1 1
1119 2 -3.2557242249168766e+01 -9.2006466190769942e+01 -1.0348432972856784e+02 0 1 1
1859 1 3.7697232676663475e+01 -7.3437697078738921e+01 -1.0357933992670243e+02 -1 1 1
3386 1 3.9391963339505878e+01 -7.3391385027348434e+01 -1.0159660170605856e+02 -1 1 0
1307 1 3.8559054024590466e+01 -7.4740268933332345e+01 -1.0178356467963678e+02 -1 0 0
5298 2 3.9015145346336652e+01 -7.3986733290189179e+01 -1.0226438603415656e+02 -1 1 0
946 1 2.8928217002829086e+01 -5.2937129523519275e+01 -1.0154639450530024e+02 1 1 0
579 2 2.9653967305365256e+01 -5.2283155872655556e+01 -1.0131946552949599e+02 1 1 0
403 1 2.9777564810906341e+01 -5.2031863248978553e+01 -1.0039997027113650e+02 1 1 0
4633 1 1.4923675248565414e+02 -4.0118550669860412e+01 -1.0368954361604733e+02 0 0 0
4977 2 8.8771887457530084e+01 -3.3543605612538670e+01 -1.0068812378160430e+02 0 0 -1
4177 1 8.9066688567505139e+01 -3.2638501752036589e+01 -1.0082109340368663e+02 0 0 -1
4498 1 1.1905248895845710e+02 -4.2245067486569212e+00 -1.0330198563091940e+02 0 0 1
4848 2 1.1850173784125136e+02 -4.9473625789485993e+00 -1.0378687899852713e+02 0 0 1
513 2 1.5306890638237036e+01 2.0367045437545812e+00 -1.0201111308864768e+02 -1 0 0
1870 1 1.4712995828761194e+01 1.6734459269929118e+00 -1.0131207951816521e+02 -1 1 0
511 1 1.6063740227758728e+01 2.5833414296124033e+00 -1.0167534791552895e+02 -1 0 0
2056 1 1.0215269638637989e+02 3.3923899412840512e+00 -1.0158404501175657e+02 0 1 0
3377 1 1.0203586331943001e+02 5.2161573773188650e+00 -1.0133739661152772e+02 0 1 -1
2214 2 1.0249312266437423e+02 4.3232152676118574e+00 -1.0136852642432100e+02 0 1 0
660 2 -5.9503241151936834e+01 1.3779262414928155e+01 -1.0276223948834448e+02 0 0 1
4729 1 -6.0470183747494289e+01 1.4046780297043966e+01 -1.0251522323782498e+02 0 -1 1
4252 1 -5.9223417752681740e+01 1.2728770219511659e+01 -1.0276309206659157e+02 0 0 2
4558 1 -5.8626913206483820e+01 1.5137562602525776e+01 -1.0249249252531564e+02 0 -1 1
5697 2 -5.8141604029431306e+01 1.6064239917608660e+01 -1.0224534658642688e+02 0 0 1
5695 1 -5.8370568230901455e+01 1.6308002226313420e+01 -1.0131515899767126e+02 0 0 1
5380 1 3.9516833171183094e+01 -1.2308571671385207e+02 -9.9909544371077146e+01 0 0 0
964 1 -1.1102570444028439e+02 -6.7453150825604240e+01 -9.9799483304439946e+01 0 1 0
1602 2 -1.1056219620799588e+02 -6.6931757552016307e+01 -9.9156233459507888e+01 0 1 0
508 1 -1.1069857765945692e+02 -6.7023328906762572e+01 -9.8115888011368526e+01 0 1 0
5264 1 -1.0928926828873759e+02 -6.6056470591839997e+01 -9.6304029947382304e+01 2 1 0
3559 1 -1.0717645724383176e+02 -6.4891224076508621e+01 -9.7900300308690234e+01 0 1 0
3688 1 -1.0883326167155926e+02 -6.5264870186371979e+01 -9.8209148146229538e+01 0 1 1
3561 2 -1.0807103272340385e+02 -6.4953708588611406e+01 -9.7585893491931785e+01 0 1 0
4954 1 1.3427929296339769e+02 -5.5814330646451154e+01 -9.8124176817670232e+01 0 0 0
4035 2 1.3348036279314667e+02 -5.5355959377348995e+01 -9.8483184783346147e+01 0 0 0
2363 1 1.3358805261694633e+02 -5.4402133326987624e+01 -9.8319662842094459e+01 0 0 0
1021 1 8.8884750653564794e+01 -3.3761008354370020e+01 -9.9701778919194737e+01 0 1 -1
2848 1 -2.5505420264913937e+01 -2.9466297755122781e+01 -9.7913521335914666e+01 0 -1 0
5490 2 -2.5916570040307846e+01 -2.9305056807126419e+01 -9.8861143924353144e+01 1 0 0
202 1 -2.6431790826579089e+01 -2.8481088381230180e+01 -9.8911129907722810e+01 0 0 0
2845 1 3.0182204758458369e+01 -1.0813256082248449e+02 -9.5351861474157730e+01 1 0 0
5783 1 -1.2111595135897360e+01 -1.0414512083357425e+02 -9.3767930270500557e+01 -1 0 -1
5013 2 -1.2147314711125532e+01 -1.0511572765497419e+02 -9.3433431767721586e+01 -1 0 -1
721 1 2.9099886244567983e+01 -1.0701163731194745e+02 -9.5955665331328191e+01 1 0 0
1820 1 3.1207188166801444e+01 -1.0638293586969914e+02 -9.2151438668329746e+01 0 0 0
999 2 2.9882856353694621e+01 -1.0719056659110798e+02 -9.5346699978094108e+01 1 0 0
1986 2 3.1518004667451919e+01 -1.0658732335621428e+02 -9.3056125618361023e+01 1 0 0
1832 1 3.0906996030186633e+01 -1.0659739087915310e+02 -9.3938407685972152e+01 1 0 -1
2829 2 -3.9004553564270353e+01 -9.2488804632097271e+01 -9.4117318309336923e+01 0 0 0
1315 1 -3.9743790647362289e+01 -9.2507690454089953e+01 -9.4847380094892003e+01 0 0 0
1357 1 -3.8706769102001601e+01 -9.3039218441431018e+01 -9.3281849045101467e+01 0 0 0
5412 2 -1.1016339965705869e+02 -6.6519732667794074e+01 -9.6360852979176201e+01 1 1 0
5410 1 -1.1066471713087415e+02 -6.6691190809198446e+01 -9.5529083568826834e+01 1 1 0
3684 2 -1.6848078911064931e+01 -6.5266725886913520e+01 -9.3478737558229426e+01 0 2 2
2414 1 -1.6255714337757666e+01 -6.5655447951220822e+01 -9.4185323626463060e+01 0 1 1
5227 1 -1.6535283710914030e+01 -6.5298740983681185e+01 -9.2547403563857912e+01 0 2 1
3489 2 -6.2302795168208689e+01 -5.9163065157389113e+01 -9.4412028027352406e+01 0 1 0
3814 1 -6.2523535900320795e+01 -5.9580196322106076e+01 -9.5319057657246930e+01 0 1 0
1589 1 -6.2760703714601284e+01 -5.8319348721750970e+01 -9.4312350773944871e+01 0 1 0
3017 1 -6.3295209336839335e+01 -5.5807883277830086e+01 -9.5168362527099902e+01 0 1 0
2083 1 -6.4610913692230241e+01 -5.6820331220512017e+01 -9.4799973524723356e+01 -1 1 -1
1020 2 -6.3656123715090708e+01 -5.6748820560572682e+01 -9.5010395352609663e+01 -1 1 0
2569 1 1.3755645698548477e+01 -4.3879229715607806e+01 -9.5864669836982614e+01 0 1 1
2571 2 1.4308372611187480e+01 -4.4384446219009234e+01 -9.5242796428070250e+01 0 1 1
287 1 1.4111077786388364e+01 -4.4185448569377741e+01 -9.4248587464295326e+01 0 0 1
4194 2 -2.4979829834919911e+01 -2.9589123917060533e+01 -9.6263148670449340e+01 0 0 0
2224 1 -2.4581451893183598e+01 -2.8955835612007874e+01 -9.5669562268800036e+01 0 -1 0
4016 1 -2.5112876969196279e+01 -3.0472751577548919e+01 -9.5819513609135626e+01 0 -1 0
2180 1 -4.8055830966916801e+01 -2.3427298766161513e+01 -9.3809349528417513e+01 0 1 0
3746 1 -4.9126254521583817e+01 -2.3433285239102261e+01 -9.5293398626288138e+01 1 1 0
4278 2 -4.8900335188024400e+01 -2.3214543277347289e+01 -9.4301073510646319e+01 0 1 0
4274 1 -7.0952885114749193e+00 -1.5192372013310973e+01 -9.3294893674530513e+01 -1 -1 1
3057 2 -6.0918884535212783e+00 -1.5362161605095309e+01 -9.3252189296442566e+01 -1 0 1
2785 1 -5.5718605099494880e+00 -1.4954430742718685e+01 -9.4012752727326074e+01 -1 0 1
1739 1 6.4662876057432186e+00 -1.1692086710558937e+02 -9.0209195913171683e+01 1 0 1
2070 2 5.6340255717236971e+00 -1.1643084219767880e+02 -9.0542418003340771e+01 1 0 1
2068 1 5.3601707410164181e+00 -1.1560603387573751e+02 -9.0076066891983714e+01 1 0 1
2557 1 -1.2572063502051208e+01 -1.0533143710287612e+02 -9.2603496520200792e+01 -1 0 -1
3460 1 -1.1824400792890923e+02 -4.6346894388907188e+01 -9.0984237170678568e+01 0 0 2
4774 1 -1.1822615838091494e+02 -4.7759609208780404e+01 -9.0196810011447411e+01 0 1 2
4776 2 -1.1829522098397403e+02 -4.7310558857186720e+01 -9.1073667678259710e+01 0 1 2
5923 1 1.3156371432543122e+02 8.0453836011189708e+00 -8.9445172824712017e+01 -1 0 -1
3864 2 1.3244373905855221e+02 7.7510816520546086e+00 -8.9092382032885823e+01 -1 0 -1
1229 1 3.2499636369956590e+00 1.2210465084833771e+01 -8.9315562393921340e+01 0 0 0
2649 2 3.9963442878336366e+00 1.2628592267467127e+01 -8.9824794432122985e+01 0 0 0
3988 1 4.1891350546593742e+00 1.3580918616938391e+01 -8.9547057932616056e+01 0 -1 0
5942 1 -5.1048553180871295e+01 -1.2411287290297058e+02 -8.7732938298419356e+01 0 0 0
5631 2 -5.1117028236295610e+01 -1.2512752762954324e+02 -8.7968567615160708e+01 0 1 0
757 1 -5.0672726204876881e+01 -1.2594278072830639e+02 -8.7548221884437908e+01 0 1 1
5510 1 1.5802597462909833e+02 -9.2176880718210072e+01 -8.6816170351578222e+01 -1 0 1
5526 2 1.5892917611040227e+02 -9.2086503464590677e+01 -8.7220463547065577e+01 -1 0 1
2896 1 1.5899199764240441e+02 -9.1862751058106511e+01 -8.8217822525628122e+01 -1 0 1
648 2 4.4093172279851643e+01 -8.1795363810448961e+01 -8.5920546646909159e+01 0 1 -1
5647 1 4.4928514679217699e+01 -8.1362801146454188e+01 -8.5528675748145616e+01 0 1 -1
598 1 4.3785183835834147e+01 -8.1592552159857533e+01 -8.6786654575527137e+01 0 1 -2
4975 1 5.6993666502890022e+01 -6.1584077755953203e+01 -8.5161857813571771e+01 0 0 0
5845 1 5.7155302158317880e+01 -6.0054581297179894e+01 -8.5862072355191060e+01 -1 0 0
1080 2 5.7404386000115096e+01 -6.0678293488337246e+01 -8.5099459113738618e+01 0 0 0
1658 1 1.6514623497606394e+02 -1.6255097458479526e+01 -8.6257415061710589e+01 0 0 0
4740 2 1.6545298670996382e+02 -1.7065829900890066e+01 -8.5768694755798293e+01 0 0 0
1018 1 1.6586621159719252e+02 -1.7839209265034185e+01 -8.6197180447778365e+01 -1 0 0
4758 2 3.7179611530164124e+01 -1.4989355195203444e+00 -8.8162132806932632e+01 -1 0 0
937 1 3.8119013987595935e+01 -1.5657769289988295e+00 -8.7704032275455177e+01 -1 0 0
430 1 3.6394474989903472e+01 -1.2944621137866221e+00 -8.7646200102389628e+01 -1 0 0
3887 1 -3.6480589738237228e+00 9.5126537308551633e+00 -8.5019200954194730e+01 -1 1 0
1736 1 -2.1927006167779410e+00 1.0500266989316771e+01 -8.5018176489217083e+01 -1 1 0
3862 1 1.3277442658415200e+02 7.8340415631116684e+00 -8.8134806026916564e+01 -1 0 -1
982 1 9.3910853309406491e+01 1.8644415697351633e+01 -8.6762356054236662e+01 -1 0 1
4835 1 9.7799567046792504e+01 1.8965755534480536e+01 -8.8595953820472005e+01 0 0 1
4658 1 1.2320971242772632e+02 -1.1960939628234424e+02 -8.2628026258122048e+01 -1 1 0
4282 1 1.2355223736259296e+02 -1.1797270003988415e+02 -8.2386315323776415e+01 -1 1 0
5418 2 1.2320790198399251e+02 -1.1884360194151101e+02 -8.2011971053011308e+01 -1 1 0
5087 1 -8.7960880441568662e+01 -9.4720343627768472e+01 -8.2242366594802149e+01 0 1 1
1686 2 -8.8171680550337854e+01 -9.4780603094678852e+01 -8.1245577059066761e+01 1 1 0
174 2 3.6819488238443711e+01 -7.5018661990102530e+01 -8.1132060605109899e+01 0 0 1
5524 1 5.4435159955652551e+01 -3.5574058368617443e+01 -8.2841486874437578e+01 0 0 1
3452 1 1.4873353494294864e+02 -3.5153404245178194e+01 -8.2555140276581071e+01 0 0 0
5312 1 -9.3190520904743252e+01 -3.2575114062543861e+01 -8.2692748934725245e+01 0 0 0
4574 1 -9.1998595645713607e+01 -3.3148945395803992e+01 -8.1772864295477547e+01 0 0 0
3711 2 -9.2822071926702449e+01 -3.2633787930472181e+01 -8.1782095146922657e+01 0 0 0
2007 2 5.4509791063718609e+01 -3.4651020254193412e+01 -8.3233935008254605e+01 0 0 0
5024 1 5.3701972179649715e+01 -3.4339915902764346e+01 -8.3727669346004689e+01 0 0 1
3258 2 1.4904276555180306e+02 -3.4215368588000828e+01 -8.2755527966802816e+01 0 0 0
2086 1 1.4865950461804104e+02 -3.3598349799894237e+01 -8.3405779658560320e+01 0 0 0
5408 1 -3.8537092315316812e+00 -1.6055463911837307e+01 -8.2898322176732393e+01 0 0 0
4875 2 -3.5811417220869401e+00 -1.6720608616945086e+01 -8.2253610728233795e+01 0 0 0
1907 1 -2.6823635078900594e+00 -1.6570907703136911e+01 -8.1888077721614550e+01 0 0 0
1853 1 2.1550965581325300e+01 -9.1149948772724372e+00 -8.3651644845752145e+01 0 -1 1
3441 2 2.0731720882760698e+01 -9.6444005225000211e+00 -8.3709925152702510e+01 0 -1 1
2477 1 2.0081931021497411e+01 -9.6720874232168228e+00 -8.4502072171233351e+01 0 -1 1
4118 1 1.4949783170698211e+02 -6.9363553399898166e+00 -8.1337326075066997e+01 -1 1 1
1317 2 1.5304693949455825e+02 -6.9294987466271607e+00 -8.1225812762561077e+01 0 0 0
5948 1 1.5355238274100876e+02 -6.1387218752886952e+00 -8.1291468622594991e+01 0 0 0
2568 2 -2.8007014572648217e+00 9.8074941616301601e+00 -8.4640230350955335e+01 -1 1 0
2978 1 1.2402419099772891e+02 -1.1895154828244530e+02 -8.0554488761511635e+01 0 0 0
4372 1 1.2432896530671206e+02 -1.1862591337855062e+02 -7.8847863373473487e+01 0 0 1
2553 2 1.2468255921594235e+02 -1.1880152494684813e+02 -7.9737373135926759e+01 0 0 1
422 1 -8.8263916559082219e+01 -9.4037727093638168e+01 -8.0679373234102272e+01 1 1 0
1177 1 6.9815720431331897e+01 -9.2918603017184495e+01 -8.0925311993254013e+01 0 0 1
54 2 6.9000105366038298e+01 -9.3045157281406745e+01 -8.0372757952258752e+01 0 0 1
3686 1 6.8417116794002311e+01 -9.2249676346394182e+01 -8.0101665784053935e+01 0 0 1
263 1 2.5174684796411725e+01 -9.1454783009100581e+01 -7.8623209370734415e+01 -1 1 1
1218 2 2.5851610505181270e+01 -9.0761663838715037e+01 -7.8711815333933004e+01 -1 1 1
4151 1 2.5707933663215158e+01 -9.0326601152005594e+01 -7.9580133018365629e+01 -1 1 1
118 1 3.7079995875801643e+01 -7.4067268498572446e+01 -8.1131657756711462e+01 0 0 1
3323 1 3.7094178912665768e+01 -7.5620430325229890e+01 -8.0328334400626346e+01 0 0 1
1132 1 1.3134829736810147e+02 -2.8484640417541456e+01 -7.8612194129028936e+01 0 0 1
2603 1 1.3269466165853609e+02 -2.9428074829978740e+01 -7.8450311874013394e+01 -1 0 1
4095 2 1.3234706220504827e+02 -2.8541752086374316e+01 -7.8676077304428119e+01 0 0 1
363 2 -7.9891996738380300e+01 -2.0813165062951313e+01 -7.8202255414891241e+01 0 0 1
361 1 -7.9630597928264621e+01 -2.1361666248110552e+01 -7.8956471478302205e+01 0 0 1
1774 1 -7.9066780637936603e+01 -2.0361817743982812e+01 -7.7717518380102646e+01 0 0 1
1889 1 1.5049290237223303e+02 -8.3153440190130254e+00 -7.8154569175859436e+01 0 0 1
373 1 1.5078186915068082e+02 -7.8489584523910878e+00 -7.9639177125860442e+01 -1 0 0
5069 1 1.5458480967290157e+02 -8.8963676667192999e+00 -7.9223461166839058e+01 0 0 0
2322 2 1.5385726489656227e+02 -8.2141100855662756e+00 -7.9314017547577180e+01 0 0 1
2204 1 1.5304671187235172e+02 -8.4531429699002985e+00 -7.8794422729465509e+01 0 0 0
5019 2 1.5106161988986756e+02 -8.5386857214926550e+00 -7.8909111545112978e+01 0 0 0
1755 2 1.5034213102670228e+02 -6.8979385204838053e+00 -8.0845692830288769e+01 -1 0 0
473 1 1.5344896517768129e+02 -7.5382001807753767e+00 -8.0306377506722086e+01 0 0 0
2921 1 1.5199784007741974e+02 -6.7685967585729117e+00 -8.1279794328116907e+01 -1 0 0
4471 1 -5.2499230217169369e+01 -3.9902540761122651e+00 -7.7755454990332197e+01 0 0 1
2343 2 1.2884177050809870e+02 7.3566264335852054e+00 -8.0451709294319102e+01 0 1 0
3413 1 1.2868821726784708e+02 6.4709898897496032e+00 -7.9983430947174014e+01 0 0 0
2926 1 1.2967260754515010e+02 7.5154357067386570e+00 -8.0939514312762782e+01 0 1 0
3865 1 1.5295428650971274e+01 -9.3047767063466694e+01 -7.5290204357167894e+01 0 0 0
228 2 1.5951281641483007e+01 -9.3604773499994380e+01 -7.5800606212634221e+01 0 0 0
4423 1 1.5555882578504225e+01 -9.4131363438808307e+01 -7.6560977313348843e+01 0 0 0
1890 2 1.8163799928447617e+01 -9.3457105986272452e+01 -7.4403226437869336e+01 0 1 1
1888 1 1.7408431562311335e+01 -9.3534534757384947e+01 -7.5108701638382158e+01 0 1 1
4615 1 1.8517872920448383e+01 -9.2526291759354933e+01 -7.4276267329788524e+01 0 1 1