LAMMPS data file via write_data, version 7 Aug 2019, timestep = 240072

6000 atoms
2 atom types

-3.0719558359473488e+01 6.9871860905609552e+01 xlo xhi
-3.0719558359473488e+01 6.9871860905609552e+01 ylo yhi
-3.0719558359473488e+01 6.9871860905609552e+01 zlo zhi

Masses

1 1.008
2 15.9994

Atoms # atomic

4112 1 2.4332254492532392e+01 -2.8589083067375178e+01 -3.0564385936609419e+01 -1 0 0
1816 1 4.5236178928851082e+01 -2.8241588889968419e+01 -2.7312725043269445e+01 0 0 1
5034 2 4.4916008477336852e+01 -2.7429817271134606e+01 -3.0328782930740957e+01 0 0 1
5058 2 4.4948709476323906e+01 -2.7400678607365275e+01 -2.7713668559693289e+01 0 1 0
5725 1 4.4835703883823093e+01 -2.7244666709511950e+01 -2.9352782911467990e+01 0 0 1
5860 1 4.9533069910736607e+01 -2.9385327931322628e+01 -2.7876562942331095e+01 0 0 1
3038 1 4.7568447014543587e+01 -3.0337190185386333e+01 -2.9916785186184399e+01 0 0 1
5862 2 4.9974186782959144e+01 -2.9421604199490794e+01 -2.6991093733205759e+01 0 0 1
3797 1 4.7438022230820515e+01 -2.8722451098047717e+01 -3.0261658151175634e+01 -1 0 1
1545 2 4.8093068485782318e+01 -2.9396139404559612e+01 -3.0235286862787635e+01 -1 0 1
2594 1 5.0996435934958832e+01 -2.9564015083676821e+01 -2.7172264010187220e+01 0 0 0
2256 2 5.2584592299681951e+01 -2.9441616807365598e+01 -2.7168602304395918e+01 -1 1 1
2384 1 5.3514887708456079e+01 -2.9638447355784837e+01 -2.7631480594418953e+01 0 1 1
4557 2 5.4728467463844815e+01 -2.9570905114955472e+01 -2.8542206830850567e+01 0 0 1
2717 1 5.4906022705623009e+01 -3.0200527165047635e+01 -2.9359757246274249e+01 0 0 1
4264 1 5.7329422201464858e+01 -2.7979783280813617e+01 -2.6880937913910717e+01 -1 0 0
5102 1 5.5350673170303132e+01 -2.8813252535333159e+01 -2.8465288019291688e+01 -1 0 1
4266 2 5.9212214137331962e+01 -2.8909309705086542e+01 -2.7599054929618461e+01 -1 0 0
5183 1 6.0123253639033670e+01 -2.8789639444066001e+01 -2.7307652121766772e+01 0 1 0
1546 1 5.9032411902484917e+01 -2.9758196193928530e+01 -2.8155028008880965e+01 -1 1 0
3482 1 2.6836246045327186e+01 -2.3024264237360054e+01 -2.9837303425026974e+01 1 0 0
171 2 2.6680147816532383e+01 -2.2886734514984646e+01 -2.8875460240667440e+01 0 0 1
714 2 2.8605968063258047e+01 -2.3432212264140201e+01 -2.7188626003873097e+01 0 0 0
5738 1 2.7705985748936058e+01 -2.3688250364836296e+01 -2.6772337373944787e+01 -1 0 0
5087 1 2.7496837446347818e+01 -2.2820160628887997e+01 -2.8293873973345050e+01 0 0 1
599 1 2.9372804805650979e+01 -2.4002820263426301e+01 -2.6893132667691361e+01 0 0 0
4051 1 3.0408221619303255e+01 -2.6705826923467598e+01 -2.7099770757395614e+01 0 0 1
655 1 3.6069709344363908e+01 -2.5597596607680199e+01 -2.8161732750949000e+01 0 1 0
4803 2 3.6807043803219933e+01 -2.5574673845698818e+01 -2.8873060786546024e+01 0 0 1
5990 1 3.7553076625201463e+01 -2.4944113689812369e+01 -2.8664975685828448e+01 0 0 1
2964 2 3.8883429064755724e+01 -2.3933077848219913e+01 -2.8033228819615683e+01 -1 0 0
3391 1 4.1468011082611831e+01 -2.6083393898370172e+01 -2.7630937519606011e+01 0 0 0
4798 1 3.9766706838571572e+01 -2.4508741703419609e+01 -2.7706658058505347e+01 -1 0 0
900 2 4.1104933915608250e+01 -2.5126316956812868e+01 -2.7481763130255253e+01 0 0 0
1934 1 4.1678320708746504e+01 -2.4273554668382818e+01 -2.7274966970159159e+01 0 0 1
2312 1 3.9075759604447320e+01 -2.2975610407337175e+01 -2.7911546478861688e+01 -1 0 0
4740 2 4.2556195497891473e+01 -2.2758099500648513e+01 -2.7088874759439609e+01 0 0 1
3209 1 4.3389044025220507e+01 2.4745769058494460e+01 2.1758688091534481e+01 0 0 0
5144 1 4.5377683459105249e+01 -2.6652385880250232e+01 -2.7188921174070320e+01 0 0 0
3152 1 4.5833945838887239e+01 -2.3630183116517951e+01 -3.0011053665165409e+01 0 0 0
4819 1 4.7832644766218642e+01 -2.6285550167491955e+01 -2.7535471311719729e+01 0 0 1
2019 2 4.8215332804494359e+01 -2.5504388772024022e+01 -2.9719141128346077e+01 0 0 1
3247 1 4.7388792289067062e+01 -2.4901021963438922e+01 -3.0237675818730338e+01 0 0 0
5597 1 4.8833611454583114e+01 -2.5895774646804895e+01 -3.0319796034952081e+01 0 0 0
182 1 2.5608454773192044e+01 -1.9015851300973274e+01 -2.7895002347860405e+01 0 0 1
5349 2 2.5689828326637958e+01 -1.9892212050552398e+01 -2.7388209049100169e+01 0 0 0
685 1 2.5995060631389308e+01 -2.0706292322098719e+01 -2.7872888973282972e+01 0 0 0
1198 1 4.1392703231413869e+01 -1.9594549495899514e+01 -2.7743328131974870e+01 0 0 0
4182 2 4.1750186019511979e+01 -2.0148868265029890e+01 -2.6980862539909420e+01 0 0 0
1543 1 4.2409009420793048e+01 -2.1766308484395733e+01 -2.6935675041844949e+01 -1 0 1
641 1 4.4855581085717567e+01 -2.1175670790246635e+01 -2.9493489656496827e+01 -1 0 0
288 2 4.4511817738493470e+01 -2.2103101088009840e+01 -2.9306482951552038e+01 -1 0 1
640 1 4.3590400336748097e+01 -2.2124727252065995e+01 -2.8804714091510650e+01 -1 0 0
2818 1 -3.0639701821351363e+01 -1.6376200078277620e+01 -2.7051007742599072e+01 1 0 1
1900 1 2.1560701822025031e+01 -1.7442871827433319e+01 -2.7971792981032618e+01 0 0 0
3456 2 2.3242479492913006e+01 -1.5823391246753202e+01 -3.0194387178162643e+01 0 0 0
1485 2 2.1757939816023416e+01 -1.7747301599352603e+01 -2.7017314339686564e+01 0 0 0
1856 1 2.2659465216727469e+01 -1.4632838433318916e+01 -2.9743256884296745e+01 0 0 0
1477 1 2.4437292347311249e+01 -1.6431045210745260e+01 -2.9430867841561351e+01 0 0 1
2954 1 2.4588288861460143e+01 -1.6759942687314023e+01 -2.7821588307561843e+01 0 1 1
4497 2 2.5040198409785773e+01 -1.6720085519705943e+01 -2.8673498210025336e+01 0 0 1
4823 1 2.6858122012445250e+01 -1.6446221165420276e+01 -2.9215999714983585e+01 0 0 0
2977 1 3.0551744154029144e+01 -1.7768597152819375e+01 -2.9601798495663562e+01 0 0 0
1136 1 2.8984181171272475e+01 -1.7212968620985635e+01 -2.9207820393519111e+01 0 0 1
2553 2 2.9863937881687278e+01 -1.7758674217246053e+01 -2.8796469089911618e+01 0 0 1
506 1 2.7587474970059780e+01 -1.5447223537118539e+01 -3.0208858118742292e+01 0 0 0
4824 2 2.7793693107042785e+01 -1.6193296001008569e+01 -2.9563816513608732e+01 0 0 0
2848 1 3.0596562854181755e+01 -1.8559609273984666e+01 -2.7263471048656708e+01 0 0 0
499 1 2.8648379735514162e+01 -1.6240669891516127e+01 -2.6904794179548194e+01 0 0 0
3404 1 3.8178232335287440e+01 2.4883066326689189e+01 2.0126577612501279e+01 0 0 0
5195 1 3.2465046062151849e+01 -1.7912681411873393e+01 -3.0021717753466440e+01 0 0 0
5876 1 6.0286095990767983e+01 -1.4185431821767473e+01 -2.8680678717464517e+01 -1 0 0
4448 1 6.0017844020568994e+01 -1.5453374613020671e+01 -2.7630218152520165e+01 -1 0 1
3564 2 6.6158702832142438e+01 -1.7057012129864532e+01 -3.0557615375328723e+01 -1 0 1
2387 1 6.8890439153981333e+01 -1.6258361748634005e+01 -2.8729631454650519e+01 -1 0 1
117 2 6.9138621535587021e+01 -1.6269087768284507e+01 -2.7527345259006495e+01 -1 0 1
3 2 6.8473546520183021e+01 -1.6368524676733465e+01 -2.9893706975297569e+01 -1 0 0
1405 1 6.7197387743668060e+01 -1.6610302167061178e+01 -3.0123300088700518e+01 -1 1 1
3689 1 6.7871264633028460e+01 -1.5270068998511878e+01 -2.6931554835362945e+01 -1 1 1
3790 1 1.8894614581815574e+01 -1.3240990297907391e+01 -2.8334885694143047e+01 0 0 1
5064 2 2.1987351579980128e+01 -1.3784514785095251e+01 -2.9346507953639762e+01 0 0 1
961 1 1.9826348405135612e+01 -1.4231484510300699e+01 -2.7446429965837236e+01 0 0 1
1851 2 1.9786138996038929e+01 -1.3414482874118924e+01 -2.8065360404939423e+01 0 0 1
5006 1 2.1127855388372048e+01 -1.3619597939039110e+01 -2.8840712058569142e+01 0 0 1
5233 1 2.2445747957622885e+01 -1.1058705341927045e+01 -2.9955285888801516e+01 0 1 0
880 1 2.2045169682323568e+01 -1.3001678562019936e+01 -3.0002951224974655e+01 0 0 1
2823 2 3.8815754215302313e+01 -1.3108615268526314e+01 -3.0613298120388791e+01 -1 1 0
4891 1 3.9142453426297443e+01 -1.1563383191955538e+01 -2.7792590761375845e+01 0 0 1
2784 2 3.9643468212122734e+01 -1.1538280603388692e+01 -2.8710597496196172e+01 0 1 1
2666 1 3.8870730086359892e+01 -1.2324483983812883e+01 -2.9972263088280179e+01 0 0 1
620 1 3.9446831888667852e+01 -1.3813556266464147e+01 -3.0428574092417456e+01 0 0 0
5847 2 6.0651796691291217e+01 -1.4712909170370452e+01 -2.7846891937418899e+01 -1 0 0
5665 1 6.2165358358348279e+01 -1.3674902756425194e+01 -2.7778218012259856e+01 -1 1 0
3798 2 6.3108152483260163e+01 -1.3348300885791158e+01 -2.8070274581515168e+01 -1 0 1
170 1 6.3665323145835764e+01 -1.3213159420960036e+01 -2.7339140485750491e+01 -1 0 1
1497 2 6.4552900868348445e+01 -1.2356660641437134e+01 -3.0098549418988306e+01 -1 0 1
3584 1 6.3930894663025136e+01 -1.2644204751903136e+01 -2.9246993505442806e+01 -1 0 1
23 1 6.5514928195185206e+01 -1.1995050672401021e+01 -2.9832766521713690e+01 -1 0 1
3715 1 6.7877026581565019e+01 -1.2379841935453680e+01 -2.9955032710491551e+01 -1 0 0
1107 2 6.7435215084699337e+01 -1.2080128701433072e+01 -2.6781208471371095e+01 -1 0 1
5326 1 6.7151440366352432e+01 -1.2250910895961265e+01 -2.8412628710471122e+01 -1 0 0
5328 2 6.7093025128347534e+01 -1.2126412007101283e+01 -2.9355650593295028e+01 -1 0 0
2128 1 4.0027529365051358e+01 -1.0626275640109977e+01 -2.8989462057023349e+01 0 1 1
2104 1 4.0384400956005159e+01 -5.7343246766399858e-01 -2.9639563180445446e+01 -1 0 1
1630 1 4.1201880286377595e+01 9.8453769149967485e-01 -2.7498008871989349e+01 0 0 1
5673 2 4.0396781390281568e+01 -8.5365534755916528e-01 -2.8567745343421699e+01 0 0 0
703 1 4.0040098244569784e+01 -1.6533818638323154e+00 -2.8002465517699548e+01 0 0 0
4901 1 -1.5204552129754848e+01 4.3027391463110689e+00 -2.7624917256060183e+01 1 0 0
4531 1 3.6246777322833928e+01 4.2191977717082523e+00 -2.9172807559765463e+01 0 0 1
1947 2 3.6056516472034424e+01 4.4891830783274997e+00 -3.0146180681158953e+01 0 0 0
2632 1 3.9031756599069844e+01 4.2854165953416370e+00 -2.9438053507211414e+01 0 0 1
1200 2 4.1419576422250891e+01 1.9121097639961491e+00 -2.7756388590015774e+01 0 0 0
4311 2 3.9270119893543459e+01 3.3111558930265801e+00 -2.9529876202454584e+01 -1 0 1
4309 1 3.9670570253710260e+01 3.0404925816401303e+00 -2.8659411754428305e+01 -1 0 1
1631 1 4.1794481076892531e+01 2.0414537962200185e+00 -2.8666461540973724e+01 0 0 1
5477 1 -1.5440308556755223e+01 8.1159261368830826e+00 -2.8274002203182249e+01 0 0 1
3978 2 -1.4999178536502491e+01 5.0399488409630706e+00 -2.7024529641778020e+01 1 0 0
3976 1 -1.5092070142918088e+01 6.5420518847307960e+00 -2.8169743319161572e+01 1 0 0
5124 2 -1.4878558406092671e+01 7.4175877087357733e+00 -2.8664764970146383e+01 0 0 0
5122 1 -1.3337267677239527e+01 7.2777081476239758e+00 -2.9070998338731794e+01 0 0 0
4612 1 -1.2215534728126663e+01 6.5725200658741727e+00 -2.8187855165227475e+01 0 0 1
1404 2 -1.2315625672622225e+01 7.1869678831017367e+00 -2.8929401263936420e+01 0 0 1
5987 1 -1.1435180738438728e+01 7.7359760476892774e+00 -2.9733207836235081e+01 0 0 1
3802 1 -9.8842765248687776e+00 8.6747764175367905e+00 -3.0502111780585302e+01 0 0 1
3402 2 -1.0728869287557693e+01 8.1583288651312529e+00 -3.0605487740113453e+01 0 0 1
3866 1 3.7316478508243357e+01 5.6914172970832837e+00 -2.9698614410714679e+01 0 0 1
3483 2 3.8298077009927717e+01 5.9488832941931307e+00 -2.9547271289746750e+01 0 0 0
403 1 3.8881906193056416e+01 6.2666932496627084e+00 -3.0312469501627632e+01 0 0 0
5439 2 3.6496892920900898e+01 1.2871943459153229e+01 -3.0661094238575448e+01 0 0 1
1932 2 3.8599800113676658e+01 1.4247112758436202e+01 -3.0100890773216925e+01 0 0 1
409 1 3.7450092540376168e+01 1.3058763588095722e+01 -3.0354897896148898e+01 0 0 1
2272 1 3.9149252470131934e+01 1.4071096640900144e+01 -2.9307522257952016e+01 -1 0 0
4333 1 5.3279875385506948e+01 2.4750228515115239e+01 9.1670969078342424e+00 -1 0 0
4263 2 9.6765075564553911e+00 2.4871232457152374e+01 -3.0657627517054323e+01 0 0 1
3070 1 1.0349528642084003e+01 2.4696697930523044e+01 -2.9807653530933575e+01 0 0 1
353 1 1.1278604845296073e+01 2.3640204057186800e+01 -2.7653858276994868e+01 0 0 1
4269 2 1.0986610730946452e+01 2.4376590637741941e+01 -2.8250698337102040e+01 0 0 1
3341 1 2.3568005823366128e+01 -2.7213036107818361e+01 -2.6369787926042989e+01 0 0 1
2190 2 2.4550492178211819e+01 -2.7124714424673833e+01 -2.6619344377371419e+01 0 0 0
1633 1 4.6846641770330315e+01 -3.0331526849853422e+01 -2.5816569510399091e+01 0 0 0
2844 2 4.9313533673162873e+01 -2.9924109153066027e+01 -2.4570271919277644e+01 0 0 1
1684 1 4.9698096041119122e+01 -2.9665481012275734e+01 -2.5651446669953835e+01 0 0 0
1240 1 5.2679402807364006e+01 -2.8580279884510407e+01 -2.6532555359043595e+01 0 1 0
3092 1 5.1788853190961582e+01 -2.7138171266785797e+01 -2.5161760791233622e+01 0 1 0
1317 2 5.2687686340110837e+01 -2.7378450841356969e+01 -2.5531452035106895e+01 0 1 0
2113 1 5.3651649940288642e+01 -2.7113746899149614e+01 -2.5104016837474347e+01 -1 1 0
3523 1 5.5699031086322286e+01 -2.6873989151139703e+01 -2.5494466076164176e+01 0 0 1
5028 2 5.6453474077441079e+01 -2.8371798438989693e+01 -2.6514131196865883e+01 -1 1 0
1544 1 5.6000741536370150e+01 -2.9134932462780757e+01 -2.6933569624464866e+01 -1 0 1
4931 1 2.5214853887912156e+01 -2.6422628562067732e+01 -2.6884122332784884e+01 -1 0 0
651 2 3.0133000036027788e+01 -2.5996810679688281e+01 -2.6456181366852089e+01 0 0 1
3857 1 3.0788415828153781e+01 -2.5757856587523282e+01 -2.5746065146840149e+01 0 0 1
1334 1 3.4339520305090481e+01 -2.3840060201721109e+01 -2.4451282554093591e+01 0 0 0
2355 2 3.4878212978788632e+01 -2.4664212384594112e+01 -2.4451777812704243e+01 0 0 1
4220 1 3.4791249236620239e+01 -2.5134804016267342e+01 -2.3564470774662368e+01 0 1 0
364 1 4.3293746128017396e+01 -2.3050331658010126e+01 -2.6543811842024901e+01 -1 1 0
4821 2 4.7439859056618211e+01 -2.5997463696580702e+01 -2.6682328807427343e+01 0 0 1
3856 1 4.7714216203150066e+01 -2.5293364467864208e+01 -2.6007416217091343e+01 0 0 1
330 2 5.5082147830448214e+01 -2.6447773196599055e+01 -2.4829104027478905e+01 -1 1 0
1192 1 5.5433110902831480e+01 -2.5648400672775942e+01 -2.4412947226202441e+01 0 1 0
4890 2 5.6363565509317063e+01 -2.4504208013890072e+01 -2.3563980499772967e+01 0 1 0
3676 1 5.7279094667249474e+01 -2.4240580067582940e+01 -2.3213529602800435e+01 -1 1 0
5413 1 6.1142502113821926e+01 -2.3729499382257082e+01 -2.5138668874481105e+01 0 1 0
2616 2 6.0661140422475846e+01 -2.2923279168050467e+01 -2.4842920247231557e+01 0 0 0
862 1 5.9414065256191442e+01 -2.3250436503294182e+01 -2.3716738642225327e+01 -1 0 0
4024 1 2.1011093622306724e+01 -2.0028167817757755e+01 -2.2954078893913643e+01 0 0 0
1152 2 2.1908430173231153e+01 -1.9632704755411034e+01 -2.3204481866496309e+01 0 0 1
1678 1 2.2294656508377130e+01 -1.9604150782635617e+01 -2.4242307833702903e+01 0 0 1
1144 1 2.2405093001601628e+01 -1.9051885807087096e+01 -2.6305541493751669e+01 0 0 1
4500 2 2.2957740462862091e+01 -1.9563415282881920e+01 -2.5632508797281027e+01 0 0 1
4234 1 2.3864241364693719e+01 -1.9798909004783013e+01 -2.5949131685664938e+01 0 0 0
5722 1 2.6430215745547756e+01 -1.9256526164257103e+01 -2.5991187383161936e+01 0 0 0
4308 2 3.1125332094150473e+01 -1.9038094770292716e+01 -2.6522025661429947e+01 0 0 0
1607 1 3.0525450287315707e+01 -2.1690673664960940e+01 -2.4344394993770994e+01 0 0 1
2920 1 2.9770789048128627e+01 -1.9399648893743638e+01 -2.3629419637329807e+01 0 0 0
5889 2 3.1147090109400473e+01 -2.1051223202319310e+01 -2.4722903289573573e+01 0 0 0
4532 1 3.1102530947800275e+01 -2.0317495447111540e+01 -2.5568817798264586e+01 0 0 1
1752 2 3.3948177686668934e+01 -2.1588218173949098e+01 -2.4412738658739912e+01 0 0 1
3551 1 3.2996234572236709e+01 -2.1505301830708966e+01 -2.4791835155145030e+01 0 0 0
1750 1 3.4459737665959160e+01 -2.0870212386641867e+01 -2.4784345168388302e+01 0 0 1
922 1 4.1413175056460595e+01 -1.9849651740688177e+01 -2.6086441773106937e+01 0 0 0
3413 1 6.1310108070718719e+01 -2.2157368027183018e+01 -2.4942982852019632e+01 0 0 0
3666 2 6.9141356090022015e+01 -2.2202579766454637e+01 -2.5188871043485381e+01 -1 1 0
2035 1 6.9858550123049383e+01 -2.1513820887290656e+01 -2.5138083015085478e+01 -1 0 1
680 1 6.8456326328423273e+01 -2.2240397404537056e+01 -2.4490474884381332e+01 -1 0 0
185 1 1.9517346275233365e+01 -1.6483950059541812e+01 -2.6651383047222719e+01 0 0 1
5463 2 1.9665911019623572e+01 -1.5590935808781451e+01 -2.6310347500922596e+01 0 0 0
734 1 2.2267897969526153e+01 -1.7920673994082144e+01 -2.2931047945099145e+01 1 0 1
1723 1 2.0242184288356867e+01 -1.5503899254796723e+01 -2.5477518910684751e+01 0 0 1
5671 1 2.1869194395444282e+01 -1.6915899474099596e+01 -2.6426626266931748e+01 0 0 0
5114 1 2.1567026173406639e+01 -1.5929341243944442e+01 -2.3434212881130996e+01 0 0 0
579 2 2.1102820101620040e+01 -1.5065735845432176e+01 -2.3735753863669011e+01 0 0 0
2642 1 2.7095008166407013e+01 -1.7542138871876048e+01 -2.5687051578646564e+01 0 1 1
4809 2 2.7081427503367884e+01 -1.8593318889736132e+01 -2.5390188320689784e+01 0 0 0
810 2 2.9024443634329046e+01 -1.8797829969178991e+01 -2.3415493940056859e+01 0 0 1
1840 1 2.8604071471574386e+01 -1.5042131382249014e+01 -2.5919957221649437e+01 0 0 0
501 2 2.8253364752635370e+01 -1.5940848079068608e+01 -2.6064388686479440e+01 0 0 0
2921 1 2.8258263391189296e+01 -1.8938807736063438e+01 -2.4142468034733035e+01 0 0 0
5449 1 3.1408211723619985e+01 -1.8420772445070789e+01 -2.5821992043546079e+01 0 0 0
761 1 6.6210630611935443e+01 -1.5026426225548244e+01 -2.6411419453309499e+01 -1 0 1
2591 1 2.1462039483236389e+01 -1.4230813458217295e+01 -2.3326046763736535e+01 0 0 1
4267 1 3.4783910453473119e+01 -1.1999905521993576e+01 -2.5912059052632781e+01 0 0 1
1817 1 3.8437192082965218e+01 -1.1379523590244844e+01 -2.5378473698582049e+01 0 0 1
5817 2 3.8332377382564538e+01 -1.1662388180301107e+01 -2.6326057036721224e+01 -1 0 0
4289 1 3.7360514467513347e+01 -1.1891908928925968e+01 -2.6534540300021046e+01 0 1 0
4069 1 3.5682444380017095e+01 -1.3296383524062506e+01 -2.5687591715322199e+01 -1 0 1
5385 2 3.5670166150586574e+01 -1.2341200566522481e+01 -2.6076057069621044e+01 0 0 0
2 1 6.1624998783001139e+01 -1.2163777811329073e+01 -2.3326471928028543e+01 -1 0 0
5538 2 6.1694996562077726e+01 -1.3009731572513264e+01 -2.4002179051005768e+01 -1 0 0
5174 1 6.0997369775078063e+01 -1.3528990836352129e+01 -2.4535593403760188e+01 -1 0 0
5820 2 6.3916614999477069e+01 -1.2310171300286996e+01 -2.5690445196013439e+01 -1 0 1
5818 1 6.3397014663730381e+01 -1.2328594406725809e+01 -2.4829507051082267e+01 -1 0 1
4711 1 6.4207062214969511e+01 -1.1292066236338016e+01 -2.5754334539058423e+01 -1 0 1
3773 1 6.7777911533714359e+01 -1.1286051812108784e+01 -2.6364678955324216e+01 -1 0 1
5953 1 6.7251967481790842e+01 -1.3277532370912560e+01 -2.6691805240317851e+01 -1 0 1
9 2 6.7079028083198835e+01 -1.4700389092496579e+01 -2.6699255892917670e+01 -1 0 1
5000 1 5.9704777428837851e+01 -1.0387166510707107e+01 -2.2858872268149227e+01 -1 0 0
1439 1 6.2693828468835825e+01 -9.9603672100947804e+00 -2.3092229699668348e+01 -1 0 0
4887 2 6.4677189857870161e+01 -9.5939396043910357e+00 -2.5404655435104839e+01 -1 0 0
5745 2 6.3582174408448502e+01 -9.5608936423621991e+00 -2.3148122494776796e+01 -1 0 0
1204 1 6.4089810910840072e+01 -9.5927648007556030e+00 -2.4316375712210352e+01 -1 0 0
3664 1 6.4964547008270642e+01 -8.7032278396352147e+00 -2.5874811982467254e+01 -1 1 0
5601 2 6.8319755670710947e+01 -4.9627688913979782e+00 -2.4174658263738362e+01 -1 0 1
359 1 6.8798599797028288e+01 -4.0908795523241075e+00 -2.3935942143785738e+01 -1 0 1
4211 1 6.9020083340497138e+01 -5.4960681761489454e+00 -2.4708260027894994e+01 -1 0 1
3484 1 -1.9646860457588282e+01 -1.1108749321032931e+00 -2.3915951093273193e+01 0 0 1
1496 1 -1.8540583249821385e+01 -7.1133858745985989e-01 -2.2803873287198265e+01 0 0 1
5346 2 -1.9033673323053911e+01 -4.2712913740940550e-01 -2.3583857844233670e+01 0 0 1
2036 1 3.9034700818334180e+01 2.1737237949358388e+00 -2.4422246177698579e+01 -1 0 1
3512 1 3.9939783313320113e+01 2.2380216408439253e+00 -2.3065283281567638e+01 -1 0 1
627 2 3.9935751916179832e+01 2.4059617055668880e+00 -2.4041303454989894e+01 0 0 0
405 2 4.1611742969695221e+01 3.5604846549025027e+00 -2.5826236404042596e+01 0 0 0
5672 1 4.1603261972672975e+01 2.9045500828406077e+00 -2.6534100842453576e+01 0 0 0
3506 1 4.0933122457170818e+01 3.2964119831822458e+00 -2.5181198952534292e+01 0 0 1
4462 1 4.2373453905936664e+01 4.6281189817020945e+00 -2.5773889747387017e+01 0 0 0
1708 1 -1.4923875257488035e+01 4.9319122256486594e+00 -2.6090504031310282e+01 1 0 0
3723 2 4.2757260414367700e+01 6.1551411002274179e+00 -2.3010111165419193e+01 0 0 1
4533 2 4.3038869858334685e+01 5.5870940439883441e+00 -2.5550313110035212e+01 0 0 1
803 1 4.3485798928555205e+01 6.3357474429104954e+00 -2.6054072549454066e+01 0 0 0
4930 1 4.2936904674518139e+01 5.8272373271397342e+00 -2.4517731307464111e+01 -1 0 0
4025 1 4.9489867612768158e+01 -3.0251574300655754e+01 -2.2543356213822996e+01 0 0 0
724 1 4.9658701811543970e+01 -2.9543748762306500e+01 -2.1071351089784628e+01 0 0 1
1353 2 4.9075075017146453e+01 -2.8540168591899718e+01 -1.9838123076445374e+01 0 0 0
413 1 4.8064344913060459e+01 -2.8539795966750169e+01 -1.9760072256759145e+01 0 0 1
726 2 4.9829946428986013e+01 -3.0387605450298587e+01 -2.1614959401281034e+01 0 0 1
2308 1 6.8705947946612270e+01 -2.7122771163627529e+01 -2.0854359419645750e+01 0 0 1
2605 1 -3.0453692203803985e+01 -2.6773404228013192e+01 -1.9898511865846604e+01 0 0 0
5252 1 2.4542567718589268e+01 -2.3270193012595065e+01 -1.9579964790120222e+01 0 1 0
2210 1 5.0850665612637307e+01 -2.3291563833912363e+01 -2.1759412243099579e+01 -1 0 0
5532 2 5.4482619861014420e+01 -2.3509653927652231e+01 -2.2097398935266543e+01 0 1 0
674 1 5.3624140918291623e+01 -2.3963546446431486e+01 -2.2385849903093046e+01 0 1 0
4398 2 5.1534649820440045e+01 -2.4074694320951625e+01 -2.1708284093017394e+01 0 1 1
5861 1 5.1739218683624209e+01 -2.4456369729043175e+01 -2.0837144411431815e+01 0 0 1
4606 1 5.5664318801704134e+01 -2.3947133371086998e+01 -2.3063298456486272e+01 0 1 0
950 1 5.4287301038545003e+01 -2.2922628515217966e+01 -2.1371661502989291e+01 -1 1 0
825 2 5.8795469359917440e+01 -2.3191067419827760e+01 -2.2780087515480311e+01 -1 1 0
4841 1 5.8800152831843569e+01 -2.2666043551479760e+01 -2.1941610641278626e+01 0 0 0
621 2 6.7707236573574562e+01 -2.4047682276072585e+01 -1.9530682562526081e+01 0 0 0
2827 1 6.8182488486460812e+01 -2.4941110251847469e+01 -1.9765993472838463e+01 0 1 0
3426 2 6.9181593557500463e+01 -2.6602148298971120e+01 -2.0063795358360835e+01 -1 0 0
2636 1 2.3453153446613968e+01 -2.0433462701356632e+01 -2.2027180959551139e+01 0 1 0
484 1 2.5097920336929882e+01 -2.0442639013842431e+01 -2.2238318446421474e+01 0 1 0
4674 2 2.4371588517937568e+01 -2.0660746749866870e+01 -2.1677644643458102e+01 0 1 0
1285 1 2.4738237981363085e+01 -2.1786472752561053e+01 -2.0499065396147536e+01 0 1 0
216 2 2.4907150401292071e+01 -2.2362111224167791e+01 -1.9577470342355063e+01 0 1 0
452 1 6.7760961750670418e+01 -2.2616199215693790e+01 -2.0440872290408244e+01 0 0 0
1176 2 6.8187175131877183e+01 -2.1958057590275693e+01 -2.1087947383026947e+01 0 0 0
1082 1 6.8626624601849215e+01 -2.1239051312686783e+01 -2.0489041812873303e+01 -1 1 0
2904 2 2.2739519855028135e+01 -1.7003932292152577e+01 -2.2949133822526171e+01 0 0 0
3343 1 2.3027863890366554e+01 -1.6732629425602667e+01 -2.2056757705943546e+01 0 0 0
1845 2 2.8844754654661813e+01 -1.6698604895751419e+01 -2.1892382231125062e+01 0 1 1
2506 1 2.8835057820098100e+01 -1.5842940773858189e+01 -2.2452320836238634e+01 0 1 1
5702 1 2.7724184074026539e+01 -1.6305978568624493e+01 -2.0028668877394725e+01 0 1 1
5735 1 2.8850799904545433e+01 -1.7523794888925657e+01 -2.2522039405508089e+01 0 0 1
3602 1 2.8841316786984777e+01 -1.5279875028390508e+01 -1.9670901816148472e+01 0 0 1
2259 2 2.8091899554303581e+01 -1.5802106978370256e+01 -1.9283166001596939e+01 0 0 0
3684 2 6.1679690563268188e+01 -1.1686732938313011e+01 -1.9792896432826065e+01 -1 1 1
1535 1 6.2052365288536500e+01 -1.2471563391121332e+01 -1.9255551956257786e+01 -1 0 0
3280 1 6.1511078645154164e+01 -1.1779402201882473e+01 -2.0753083713678265e+01 -1 1 1
4609 1 6.0386232873070831e+01 -1.0566423341231765e+01 -2.1257386491645455e+01 -1 0 1
5964 2 6.0445445423014583e+01 -1.0720069356884768e+01 -2.2285097467234024e+01 0 0 0
178 1 6.3633227824034996e+01 -8.5891951067081855e+00 -2.2344931029459133e+01 0 0 1
3014 1 6.4509159095021033e+01 -7.7220848086701857e+00 -2.0891791239550951e+01 -1 0 0
2481 2 6.3648896250817806e+01 -7.8195976181470392e+00 -2.1365735292881006e+01 -1 0 0
5020 1 6.2939350824256856e+01 -7.7907808275808357e+00 -2.0668415561491734e+01 -1 0 0
819 2 6.6241281928089393e+01 -7.4898348322584418e+00 -2.0835739332969354e+01 -1 0 1
5116 1 6.6799138925169160e+01 -8.2988577327322162e+00 -2.1111482688395981e+01 -1 0 0
5954 1 -2.8549356347385984e+01 -5.5220885217708648e+00 -2.2026458869585611e+01 0 0 1
3720 2 -2.9448611045701352e+01 -5.0687891348848986e+00 -2.1650769626494842e+01 0 0 1
4010 1 -2.9234373562786072e+01 -4.4676456184109163e+00 -2.0806895318208461e+01 0 0 1
5289 2 -2.8770595132880665e+01 -3.6591670015205047e+00 -1.9694484072065073e+01 0 0 0
4717 1 -2.7885884756907274e+01 -3.5429745987975849e+00 -1.9268941084839572e+01 0 0 0
3691 1 6.8203868871072672e+01 -5.2451814527996632e+00 -2.2463099673074765e+01 -1 0 0
3290 1 6.6805532871075627e+01 -6.6978593135060898e+00 -2.0968849975130546e+01 -1 0 0
1915 1 6.9132584629780808e+01 -5.8808535211853332e+00 -2.1362700377303319e+01 -1 0 0
3693 2 6.8192173388485600e+01 -5.6116872430796398e+00 -2.1494951014200655e+01 -1 0 0
1903 1 -2.9396130012109118e+01 -2.8501954014357835e+00 -1.9333907332786652e+01 0 0 0
2706 2 3.8514424812177857e+01 4.8207998598469359e-01 -1.9545409100577011e+01 0 0 0
2320 1 3.8085823637892624e+01 -4.1004872181257568e-01 -1.9509647441981812e+01 0 0 1
1060 1 3.8774112603528970e+01 1.7615002961402624e+00 -2.0765736846763964e+01 0 0 0
1668 2 3.9378062795714733e+01 2.4470151957044877e+00 -2.1216887331024381e+01 -1 0 1
5524 1 3.9139249720919175e+01 3.4480774245860673e+00 -2.1172461769786928e+01 0 0 1
2401 1 4.1292414549192166e+01 2.2894308315296286e+00 -1.9620816386248201e+01 0 0 0
1654 1 4.4781553558306577e+01 4.4103591665835111e+00 -2.1588004264399586e+01 0 0 0
2260 1 -8.7439316334395940e+00 8.7211255431179850e+00 -1.9151357569233550e+01 0 0 0
1685 1 4.2440640045041171e+01 7.0359489045889916e+00 -2.2665140781565093e+01 0 0 0
1474 1 4.3115449123117735e+01 5.5544808178039489e+00 -2.2290970975662006e+01 0 0 0
2670 2 4.4146653855010420e+01 4.8937977867703637e+00 -2.1054371589020171e+01 0 0 0
4286 1 4.4326611514817593e+01 5.4662699068659322e+00 -1.9980828202982771e+01 0 0 0
2596 1 2.2860825857725047e+01 1.9055271402040901e+01 -1.9114191420502411e+01 0 0 1
2353 1 4.9598358610267802e+01 -2.8009437155046079e+01 -1.9199253526887492e+01 0 0 1
2096 1 6.7210726794169062e+01 -2.4340237497262045e+01 -1.8762239087727153e+01 0 1 0
4397 1 2.6034291836837987e+01 -2.2183357122592184e+01 -1.8106013611220064e+01 0 1 1
1614 2 2.6916233114545463e+01 -2.1936716742217399e+01 -1.7764463714406581e+01 0 0 1
4316 1 2.7156204266412509e+01 -2.0971167408593097e+01 -1.6956097349469680e+01 0 1 1
5913 2 2.7242270308217122e+01 -1.9870142509781726e+01 -1.6253028700259449e+01 0 0 1
1315 1 2.7706313368055845e+01 -2.2382276544309867e+01 -1.8123002860228553e+01 0 1 0
5149 1 2.7527012816134182e+01 -1.8965966016328338e+01 -1.6644467009232592e+01 0 0 0
456 2 2.8010690610340063e+01 -1.7077691840478217e+01 -1.6844485922652478e+01 0 0 0
4498 1 2.8319442797087355e+01 -1.6471791595062122e+01 -1.6158742274638268e+01 0 0 1
454 1 2.7881350862456124e+01 -1.6501322988161938e+01 -1.7683956001194304e+01 0 0 0
536 1 -1.5020626476612486e+01 -2.9954953691045567e+00 -1.5169898446388739e+01 0 0 0
4451 1 -3.0396511974203058e+01 -1.7854486184149003e+00 -1.7581005556646659e+01 1 0 1
4938 2 -3.0349110409472576e+01 -1.8312204509392913e+00 -1.8585996534996745e+01 1 0 0
1905 2 -3.0621430324045683e+01 -1.7939053202995332e+00 -1.5718528381442257e+01 0 0 0
978 2 -1.4968297903896016e+01 -2.3653868388228467e+00 -1.5990511426814400e+01 1 0 1
58 1 -1.4141287732230353e+01 -2.1698926808155328e+00 -1.6389368208245891e+01 0 0 0
1475 1 3.9462323383047185e+01 5.0142245690756226e-01 -1.9460338963945674e+01 0 0 0
2086 1 4.8710029597632420e+01 -6.9011059656386209e-02 -1.5237843207603030e+01 0 0 0
1400 1 6.4423893603265412e+01 3.9667826781817084e-01 -1.5427372854430038e+01 0 0 1
4662 2 6.4825438907990986e+01 -1.2628957923859119e-01 -1.6165595925846432e+01 0 0 1
2188 1 6.5375198687443913e+01 -9.1457154124484674e-01 -1.5828403249463159e+01 0 0 0
4640 1 6.9372711920765596e+01 -1.7262977167789977e+00 -1.9014273787553741e+01 0 0 0
4078 1 6.9031426600682863e+01 -1.5554906615098005e+00 -1.5468379848022881e+01 0 0 0
3314 1 4.1949470894781619e+01 1.4424954730606387e+00 -1.8249762008072306e+01 0 0 1
2403 2 4.1311491461246014e+01 1.5132095298511672e+00 -1.8985060778419388e+01 0 0 0
1570 1 5.9728145785539532e+01 4.8482125035545991e+00 -1.6511547255119339e+01 0 0 0
5321 1 -8.6809662141262898e+00 8.8454313096894310e+00 -1.7481027249874607e+01 0 0 0
3941 1 4.6663858407656939e+01 6.1814890775496920e+00 -1.6267419852035786e+01 0 0 0
2803 1 4.3732040555296429e+01 6.7032756487401883e+00 -1.8488501397089458e+01 0 0 0
1020 2 4.4423127388176162e+01 6.0844659754256867e+00 -1.8620348268068756e+01 -1 0 1
4902 2 4.6615938209499994e+01 6.6073187702550271e+00 -1.7195220639899052e+01 0 0 0
3481 1 4.5209528295313241e+01 6.4722105203608820e+00 -1.8143374257926546e+01 0 0 0
5471 1 4.7517124036959025e+01 6.9280584547954405e+00 -1.7562226970105833e+01 0 0 0
4580 1 5.5495682205197490e+01 8.9896226862676940e+00 -1.7833186289202722e+01 0 0 0
5068 1 5.5473549779394851e+01 8.8032643555553776e+00 -1.5911487706179393e+01 0 0 0
4660 1 5.9117748619696634e+01 5.3889177888321100e+00 -1.8007644473116684e+01 0 0 1
1257 2 5.9839704181487114e+01 5.4402858585119915e+00 -1.7302639929006318e+01 -1 0 1
5266 1 6.0785965059931023e+01 6.5605743454819816e+00 -1.7837062400814485e+01 0 0 0
285 2 6.1430850503570475e+01 7.3595182262364958e+00 -1.8082633008887157e+01 0 0 0
5536 1 6.2275335448462052e+01 7.6456602613896720e+00 -1.7699288232005522e+01 -1 0 0
2262 2 -8.4498107385518573e+00 9.1664225006998592e+00 -1.8365152019349061e+01 0 0 0
3699 2 5.7579269848615603e+01 1.0970004819505220e+01 -1.6076699893704117e+01 0 0 0