LAMMPS data file via write_data, version 7 Aug 2019, timestep = 40072

6000 atoms
2 atom types

-1.2949694113055266e+00 4.0447271957438318e+01 xlo xhi
-1.2949694113055266e+00 4.0447271957438318e+01 ylo yhi
-1.2949694113055266e+00 4.0447271957438318e+01 zlo zhi

Masses

1 1.008
2 15.9994

Atoms # atomic

4265 1 1.6454108063780080e+00 1.1662953776415703e+00 2.5219990623546087e+00 0 0 0
642 2 1.1516502806525746e+00 -1.0793070698055731e+00 1.0310403429407811e-01 0 0 0
641 1 9.1049618281204658e-01 -5.9954034557538227e-02 -1.2513119140010742e-02 0 0 0
5847 2 1.0039583552608522e+00 1.6148700532273774e+00 1.2907418755091360e-01 0 0 0
5876 1 3.3484902734367483e-01 2.1862930949113242e+00 7.7354039009630826e-01 0 0 0
5846 1 1.8396697930915229e+00 2.2082005070207322e+00 -2.6693169072809764e-01 0 0 0
640 1 2.1745652812684892e+00 -1.1207524198268541e+00 3.3724829323914052e-01 0 0 0
3782 1 5.2294599886433035e+00 1.9097105433636212e+00 1.0876259210295633e+00 0 0 1
2760 2 6.0984421705627971e+00 6.0653668128568117e-01 1.8478613581936307e+00 0 0 0
4028 1 4.6590012077005456e+00 -5.0320703674430400e-01 1.0148602185927835e+00 0 1 0
2240 1 3.6592634219068742e+01 1.8444315063589926e+01 1.8781210158470536e+01 0 0 0
4029 2 4.0722312529441060e+00 -1.0686056693671235e+00 5.0399775784821332e-01 0 1 0
2759 1 6.6377917986138693e+00 1.4111827678895383e-01 1.1711016689734524e+00 0 0 0
2758 1 6.7295820534252258e+00 9.1986816821681927e-01 2.5476810941152941e+00 0 0 0
1483 1 9.0947426017717650e+00 1.0397470841212111e+00 2.9038824148550031e+00 0 0 0
3870 2 9.4385740304069063e+00 -1.1056219267681693e+00 -1.2064428282674484e+00 0 1 1
1143 2 1.0084716407938563e+01 5.8819181136342835e-01 1.9039721653131765e+00 0 1 0
1141 1 1.0095424918382225e+01 3.3315768858327099e-01 9.2744929398878906e-01 0 1 0
307 1 1.1075078320157502e+01 7.3223859652959700e-01 2.2492599949734067e+00 0 1 0
2935 1 1.3798740476453190e+01 5.5220543899977503e-01 1.6070596825389107e+00 0 0 0
309 2 1.2616023926372540e+01 1.3796179173177765e+00 2.5115119654483444e+00 0 1 0
308 1 1.2425485421004836e+01 2.3616470817343735e+00 2.2166862674667351e+00 0 1 0
3688 1 1.4163780188248150e+01 7.1184353488256136e-03 -8.3741478605061537e-01 0 1 1
2937 2 1.4529605301322402e+01 -3.2862871828931439e-03 1.1282363339811314e+00 0 0 0
1084 1 1.7383188684334087e+01 1.1928745812902726e+00 7.5571993436386231e-01 0 0 0
1086 2 1.6507360837289227e+01 1.3694613997409397e+00 1.3088517973191305e+00 0 0 0
2936 1 1.5672498839482273e+01 7.2710914084811229e-01 1.4406772126932723e+00 0 0 0
1085 1 1.6319280923545101e+01 2.8842366495155476e+00 2.5307494459524884e+00 0 0 0
2297 1 1.4411617138430753e+01 -9.8628994025294570e-01 1.1318840871885358e+00 0 1 0
427 1 1.8843368430487921e+01 1.5470434471844032e+00 -8.7687606349479741e-01 0 0 0
429 2 1.8780540297327288e+01 9.4226331266227570e-01 -6.8563613229071452e-02 0 0 0
128 1 1.8877881662176023e+01 -3.0405885866618076e-02 -4.0770498610108730e-01 0 1 0
428 1 2.0007039833983484e+01 1.2275867527936586e+00 1.1198156391407559e+00 0 0 0
455 1 2.0742457993905024e+01 2.5738384501664568e+00 1.8437118355500437e+00 0 0 0
456 2 2.0717039233977506e+01 1.1775255756928651e+00 1.8077517471828899e+00 0 0 0
454 1 2.0673840224304360e+01 7.5978000120465161e-01 2.7413854796893622e+00 0 0 0
3430 1 2.2282996193669053e+01 1.0714438760544165e+00 1.1453314339886784e+00 0 0 0
3432 2 2.3270651433628526e+01 9.4645118099806425e-01 7.7455482224648975e-01 0 0 0
3431 1 2.4093139227182281e+01 1.2670732037731400e+00 1.2869446089148875e+00 0 0 0
3760 1 2.3442527451865331e+01 5.5099359268911319e-01 -4.8020621227429272e-01 0 0 1
341 1 2.5168133900486534e+01 -6.6865160447922822e-01 2.2247747059887164e+00 0 1 0
331 1 2.6465213029008329e+01 2.4966219323604690e+00 2.9117111430579898e+00 0 0 0
3949 1 2.9306382876859388e+01 -6.2935695008146053e-01 7.7715460669127268e-01 0 1 0
1612 1 2.9414038893249835e+01 1.7390902731368154e+00 9.0638515450347246e-01 0 0 1
3951 2 2.9996367050821469e+01 1.4547541554661447e-01 6.4810680225802209e-01 0 1 0
1352 1 3.0836537061690716e+01 -5.4165153231420016e-02 1.2289318164178615e+00 0 0 0
1614 2 2.9345257876557710e+01 2.7395617354314714e+00 7.4976615891347054e-01 0 0 1
4025 1 3.1115885714074860e+01 9.2166601260854142e-01 -9.6187853270033863e-01 0 0 0
1062 2 3.2948440356524173e+01 -1.7746447037789514e-01 2.2628355969493801e+00 0 0 0
1061 1 3.3472054617478975e+01 -8.1079617514277402e-01 1.6996452164595075e+00 0 0 0
1832 1 3.4256968310362652e+01 1.0859826105822386e+00 2.7111492762568918e+00 0 0 0
2354 1 3.7684189837275682e+01 1.5437303465289784e+00 -8.6385819530936181e-01 0 0 1
5688 2 3.8591386828564808e+01 1.0826664329393663e+00 -6.8430537318146756e-01 0 0 0
5686 1 3.8472421587019966e+01 8.6980199469446129e-02 -7.4049496510726642e-01 0 0 0
5687 1 3.8968686619213614e+01 2.0601800725860975e+00 1.0110623737050037e+00 0 0 0
1634 1 3.8213685555378873e+01 2.8136688672159647e+00 2.4483684533413084e+00 0 0 0
1635 2 3.9105901231773132e+01 2.5761122638710772e+00 1.8711859542004761e+00 0 0 0
2435 1 -1.2919966163274221e+00 2.7759911596001734e+00 1.8669200595779469e+00 1 0 0
2436 2 -2.5023291825446781e-01 3.0287147425808971e+00 1.8215137941300505e+00 1 0 0
3481 1 7.3096685514781923e-01 6.9722972385985340e+00 6.4957504673201161e-01 1 0 0
4449 2 1.8830121113859248e+00 5.8879629882145963e+00 -3.8822791795828648e-01 0 0 1
4447 1 2.3131267899542016e+00 4.9898164432156422e+00 -5.5186179292138393e-01 0 0 1
3482 1 -2.3648196957358358e-01 4.0096871144553958e+00 1.8510697953290891e+00 1 0 0
3783 2 5.1319763746312566e+00 2.8289280663929066e+00 6.0740395214953447e-01 0 0 1
5762 1 4.9052132708797318e+00 3.7426405545028159e+00 2.5039211641572314e+00 0 0 0
881 1 6.0409748388669371e+00 3.2451576868644558e+00 4.4796506952431914e-01 0 0 1
4448 1 2.5917257452634548e+00 6.6711686497020741e+00 -1.9204189156531903e-01 0 0 1
4384 1 3.7073132906902710e+00 3.0890751787451123e+00 -1.7422121972277305e-01 0 0 1
4386 2 2.9003061938911294e+00 3.2749746562220885e+00 -8.3690141374940219e-01 0 0 1
1705 1 7.6500965878453151e+00 4.6470596849520991e+00 -4.1310450968751300e-01 0 0 0
4057 1 8.4193211592022088e+00 3.5630680281379750e+00 6.4431042448775910e-01 0 0 0
1707 2 7.7001844757006204e+00 3.6560383147812807e+00 -7.3368549521860782e-02 0 0 0
4059 2 9.4857945267919952e+00 3.7447987045886730e+00 2.3773220502312560e+00 0 0 0
5194 1 9.3287139588602557e+00 5.8170567314583304e+00 2.2102099740053962e+00 0 0 0
4058 1 9.0028837327725100e+00 2.8857390293088034e+00 2.7345580791464927e+00 0 0 0
5196 2 9.1505794627816996e+00 6.7739436463049714e+00 2.4874443626920995e+00 0 0 0
2325 2 8.1001570820654347e+00 6.2818353506168210e+00 -1.0816322190845093e+00 0 0 1
242 1 1.0399084666413730e+01 3.7395871181784202e+00 2.0229396048505235e+00 0 0 0
241 1 1.2268589832819425e+01 3.5008729172824937e+00 2.5545308850942861e-01 0 0 0
243 2 1.2201523046136296e+01 3.6874572231028822e+00 1.2900476210998004e+00 0 0 0
4646 1 1.2974206948906499e+01 3.9725365460326731e+00 1.7609205864902999e+00 0 0 0
5360 1 1.5414972632648816e+01 6.3383814050323988e+00 9.3553545137021077e-01 0 0 0
2158 1 1.5298573654632204e+01 4.5550659557790416e+00 -3.6601862563864274e-01 0 0 0
4647 2 1.6014935273485786e+01 5.4567312071260412e+00 7.6153455656190916e-01 0 0 0
4184 1 1.6225492063264518e+01 4.9826447322927674e+00 1.5779649375761973e+00 0 0 0
5064 2 1.4776747132095103e+01 4.0744421809430911e+00 -1.0611481400601070e+00 0 0 1
3274 1 1.7790782549492317e+01 5.7037687993645321e+00 8.2136583079084557e-02 0 0 0
693 2 2.0581775905323042e+01 3.6652793737500549e+00 1.6998714292405577e+00 0 0 0
691 1 1.9652672840368517e+01 3.7440079324385733e+00 2.0013293622742654e+00 0 0 0
4235 1 2.1031132422901525e+01 4.6367885065570666e+00 8.9787513675862751e-01 0 0 0
2160 2 1.8728136024204112e+01 5.8856188446102555e+00 -3.1712262704483318e-01 0 0 0
4234 1 2.0254172997735111e+01 5.6304572889081195e+00 -2.5566276482156924e-01 0 0 0
4236 2 2.1242754966385373e+01 5.3461321007360834e+00 2.8447559677826195e-02 0 0 0
5669 1 1.8798921519539636e+01 6.8866987779911586e+00 -4.2292830950013061e-01 0 0 0
5144 1 2.1982282756730452e+01 5.2791192651061154e+00 -7.3567085723108527e-01 0 0 0
4286 1 2.6817870277482054e+01 6.7319532759014731e+00 2.1587129201572637e+00 0 0 0
1792 1 2.8173088676150140e+01 3.1283541266661281e+00 1.8237718899747608e+00 0 0 0
1793 1 2.7464689446183275e+01 4.5659660159339284e+00 2.6305022809734360e+00 0 0 0
1794 2 2.7639827810641584e+01 3.5681189602926997e+00 2.6456958456338158e+00 0 0 0
4331 1 2.6145054056097784e+01 6.6631081170157440e+00 -3.8074167991114516e-02 0 0 0
1613 1 2.8229944967659435e+01 3.4471685541934907e+00 -1.2596772216667416e+00 0 0 1
2373 2 3.1580107218418572e+01 6.5566672408964424e+00 -1.2395426025767970e+00 0 0 0
2704 1 3.0269555816342493e+01 3.2668535128467875e+00 6.3928182595190863e-01 0 0 0
1685 1 3.2331806691320551e+01 3.8155661053074175e+00 9.5491412613068771e-01 0 0 0
2371 1 3.1621751265475570e+01 4.6626732618276359e+00 -4.6605195631297724e-01 0 0 0
1686 2 3.1651128826747662e+01 4.0225597536493236e+00 2.4218266263258714e-01 0 0 0
1684 1 3.2358127610493185e+01 6.7484291592821535e+00 2.4171582886630572e+00 0 0 0
2353 1 3.5757793565071296e+01 2.7243421685175919e+00 -6.3574220065084575e-01 0 0 1
686 1 3.7667076252736678e+01 6.4491374115824023e+00 2.3657453344013071e+00 0 0 0
4977 2 3.8354407514396755e+01 6.7026969232685545e+00 1.6758753304008458e+00 0 0 0
4559 1 3.7053590193609878e+01 6.4689716703229712e+00 -1.2506846128472615e-01 0 0 1
4976 1 3.9312370488782022e+01 6.3721313589880166e+00 1.5917035312070897e+00 0 0 0
4560 2 3.6943696493096368e+01 6.2383027221506167e+00 -1.0574467820670157e+00 0 0 1
1934 1 -3.4197982090893497e-01 9.6941835146883584e+00 -7.7567689948692975e-01 1 0 1
3483 2 1.4156275753251291e-01 7.4245525319748573e+00 1.3262598930239577e+00 1 0 0
1946 1 -2.2546499194232617e-01 8.2859364050088011e+00 9.2612637837432210e-01 1 0 0
5815 1 -6.4451774897357827e-01 1.0524629667133267e+01 5.8920002836477825e-01 0 0 0
1947 2 -7.8542662287962184e-01 9.5732429152958201e+00 1.1752884962138643e-01 1 0 0
5114 1 1.9026570390706912e+00 9.6483222139015457e+00 2.5176158987168638e+00 0 0 0
1402 1 4.4271878758216765e+00 7.5747343669050746e+00 3.9969720406054488e-01 0 0 1
1404 2 3.6472889633296459e+00 7.7474460342673339e+00 -2.1312870571043319e-01 0 0 1
1403 1 3.8290623562822867e+00 8.4551839316824076e+00 -8.8838287594093257e-01 0 0 1
3410 1 6.1627637462297304e+00 1.0871162555333081e+01 4.4014317509101164e-01 0 0 1
5115 2 2.5720092298341397e+00 1.0414367020993133e+01 2.6291597393338431e+00 0 0 0
5113 1 3.6500038499654019e+00 1.0774931857938315e+01 2.0563891336474627e+00 0 0 0
2463 2 4.5876197853792373e+00 1.1158528062555584e+01 1.5110610903587198e+00 0 0 0
2900 1 8.4515045858594409e+00 8.1603101739207879e+00 -8.9381696223400198e-02 0 0 1
2901 2 8.6136142274728584e+00 8.9722505889234618e+00 5.5894716000119926e-01 0 0 1
3696 2 6.8411807558648086e+00 1.0940130005703244e+01 -2.3857482070443559e-01 0 0 1
3694 1 7.6457501952213569e+00 1.0337423245965953e+01 8.0257358488547315e-02 0 0 1
4666 1 8.7862170962170794e+00 8.4954339436601085e+00 1.4266481025400228e+00 0 0 0
5195 1 1.0522766366910890e+01 1.0272280323788891e+01 -4.3507480779283336e-01 0 0 0
4668 2 1.1445345078151643e+01 1.0481239726402507e+01 -6.6825688851424592e-01 0 0 0
3275 1 1.3889109365804716e+01 7.4885229324734990e+00 1.8628052616252888e+00 0 0 0
4019 1 1.3185587470581186e+01 1.0283036067446400e+01 -3.8703151441204053e-01 0 0 0
3082 1 1.0116046686391314e+01 7.3048120170513684e+00 2.5989880913821368e+00 0 0 0
4183 1 1.4516711507381043e+01 8.4815839581933368e+00 6.8480415249796600e-01 0 0 0
4185 2 1.4679470930810044e+01 7.7209861535460735e+00 1.2840801540765328e+00 0 0 0
2394 2 1.4100950403061054e+01 1.0291563037871615e+01 2.1414840696444948e-02 0 0 0
2393 1 1.4037469925907333e+01 1.0510295563972686e+01 9.7995530809772458e-01 0 0 0
5597 1 1.7273598145576010e+01 8.4285171356068691e+00 2.4667188383750296e+00 0 0 0
2974 1 1.9259013251176963e+01 8.9793251658989774e+00 -1.2358715860002576e+00 0 0 0
5670 2 1.9211850488948180e+01 8.6055269470988751e+00 -3.2219232806299669e-01 0 0 0
3276 2 1.9908533902220814e+01 9.9329331216327503e+00 1.6227505169618635e+00 0 0 0
4181 1 2.1237754072174660e+01 8.9136444201556504e+00 1.0607903216603480e+00 0 0 0
5668 1 1.9458216735877169e+01 9.2800356789330305e+00 4.6046051714124858e-01 0 0 0
2975 1 2.0401823334781312e+01 1.0972469284873609e+01 1.4699610557794216e+00 0 0 0
5596 1 1.9211327002614546e+01 9.6585691474959532e+00 2.3564492987856740e+00 0 0 0
4180 1 2.1959708958978204e+01 7.3148255058584031e+00 8.4826709640915920e-01 0 0 0
4182 2 2.2080847609317409e+01 8.3125123221200568e+00 9.2134791848980147e-01 0 0 0
2389 1 2.3655499609971248e+01 8.7389287659636299e+00 5.7172549266726214e-01 0 0 0
1475 1 2.5192845824776541e+01 1.0598480584798539e+01 1.3183375290924602e+00 0 0 0
2391 2 2.4529106215262996e+01 9.2642520872543059e+00 4.0043541415794581e-01 0 0 0
2390 1 2.4359292107445217e+01 9.7842723918513546e+00 -5.3190047202384538e-01 0 0 0
4285 1 2.5649019169115054e+01 8.2085542140733416e+00 6.5959960056724287e-01 0 0 0
4287 2 2.6330649270095822e+01 7.4069470712652450e+00 6.3511439246399615e-01 0 0 0
577 1 2.7620369907465196e+01 8.6417702445553033e+00 5.0825784958932263e-01 0 0 0
579 2 2.8192481435892780e+01 9.4571070892371942e+00 2.3404003310649246e-01 0 0 0
4387 1 2.8207859126444106e+01 1.0700856968127889e+01 -2.1996174966285809e-02 0 0 0
946 1 2.9360304394702020e+01 9.6912423528978913e+00 1.1542107131067216e+00 0 0 0
2143 1 1.3651512529515449e+01 1.9354798031112701e+01 1.8687488873696733e+01 0 0 0
2670 2 3.1434192913626081e+01 7.3904310395387434e+00 1.2309298318980009e+00 0 0 0
2668 1 3.1566105484820522e+01 6.8761646543516157e+00 3.3623454344054804e-01 0 0 0
1222 1 3.0795068270613509e+01 8.1729426510680714e+00 1.2415727580653639e+00 0 0 0
948 2 2.9980471849173970e+01 9.7896112484196056e+00 1.9983843444118854e+00 0 0 0
1595 1 2.9614158689030418e+01 9.3637439347917937e+00 2.8178923206759903e+00 0 0 0
4901 1 3.4966647573619966e+01 9.7648090903420020e+00 1.2516820445929095e+00 0 0 0
2304 2 3.5700894065331397e+01 1.0395907557343619e+01 1.2643021999874571e+00 0 0 0
2302 1 3.6649088404015060e+01 9.9678877213878163e+00 1.0727432838638169e+00 0 0 0
2669 1 3.8276124011648051e+01 8.1880900372105181e+00 1.2464671030427037e+00 0 0 0
3699 2 3.8358530525444380e+01 9.1632023583118265e+00 9.2318116923590177e-01 0 0 0
1945 1 3.9077755314894858e+01 9.2944283824420459e+00 2.6985892517318377e-01 0 0 0
3697 1 3.8873906597702302e+01 1.0167758813642635e+01 1.8632879416837800e+00 0 0 0
2286 2 3.9231783331785820e+01 1.0886071103188364e+01 2.4365011873068734e+00 -1 0 0
1109 1 7.4050149396802745e-01 1.4896534129985067e+01 -4.5981852965932835e-01 0 0 0
5817 2 -2.6700920735219813e-01 1.1883876053397444e+01 1.3261943698081571e+00 0 0 0
5816 1 1.1927846573243328e-01 1.2030626602238780e+01 2.2161210701790468e+00 0 0 0
1108 1 1.6925403366273661e-01 1.2525888646432415e+01 6.8957150858996563e-01 0 0 0
1110 2 1.3549222011318602e+00 1.3363830189074898e+01 -3.7063282752594173e-01 0 0 0
4799 1 2.3212119722377387e+00 1.3432828203772289e+01 -1.2927918294321938e-01 0 0 0
1961 1 1.2591655306464022e+00 1.2785974106407604e+01 -1.2069900702805545e+00 0 0 1
4798 1 4.0377667247252269e+00 1.4616336434571686e+01 1.2558247646255114e+00 0 0 0
2461 1 4.3249894086189276e+00 1.1830071519211481e+01 8.6336352435712937e-01 0 0 0
4800 2 3.9129719565925347e+00 1.4309518449067600e+01 3.0057139612961237e-01 0 0 0
3454 1 4.3332623335083209e+00 1.4900439571240451e+01 -3.6394739284760347e-01 0 0 0
2462 1 5.7316779714409911e+00 1.1819552592416542e+01 2.5248340674304481e+00 0 0 0
4708 1 7.7436318365437398e+00 1.4556355913668213e+01 6.3010172471153081e-01 0 0 0
4710 2 8.1562240722587180e+00 1.4066807305933569e+01 1.4466160391955181e+00 0 0 0
3643 1 7.5072910931289609e+00 1.3358880834924046e+01 1.9962296202154013e+00 0 0 0
3644 1 9.1324950175711237e+00 1.3582137542332344e+01 1.1875721396181986e+00 0 0 0
4018 1 1.0658207528644079e+01 1.1990544756346132e+01 3.5029894602726341e-01 0 0 0
4020 2 1.0226019164692866e+01 1.2791948771092661e+01 6.9999601556136692e-01 0 0 0
1883 1 1.1332199926517815e+01 1.4052063188627001e+01 5.0260564022743370e-02 0 0 0
888 2 1.1987808256876514e+01 1.4733749310053319e+01 -4.3167568984980054e-01 0 0 0
892 1 1.1203419447589429e+01 1.2961500716334646e+01 2.5662647672765577e+00 0 0 0
2392 1 1.5094457378047849e+01 1.1297999424580558e+01 -9.3506098061465925e-01 0 0 0
887 1 1.6403211130410043e+01 1.3340053911421252e+01 -7.0280424693558885e-02 0 0 0
57 2 1.6975464597231191e+01 1.3996780420877810e+01 3.4226363376801339e-01 0 0 0
3441 2 1.4014860900073215e+01 1.1841374252600179e+01 2.6886777333871086e+00 0 0 0
55 1 1.7143241863295625e+01 1.4812289288313750e+01 -1.9976286087748973e-01 0 0 0
3439 1 1.3930378358698196e+01 1.2629475840423400e+01 2.0764629153168745e+00 0 0 0
2976 2 1.5838327166080145e+01 1.2043159110782742e+01 -1.0875168593934317e+00 0 0 0
869 1 1.8028898264196588e+01 1.2279940049794202e+01 -1.0966649808544022e+00 0 0 0
56 1 1.7534271875847104e+01 1.3811498421915736e+01 1.7887390014913187e+00 0 0 0
672 2 1.8043822681885036e+01 1.3596598192340155e+01 2.6915174460512592e+00 0 0 0
1456 1 1.9243116015645334e+01 1.2102742332424443e+01 -1.6956982072669824e-02 0 0 1
417 2 2.0735670582355599e+01 1.2383201727398426e+01 1.3824721538306970e+00 0 0 0
671 1 1.9995118598656894e+01 1.2786362286014230e+01 1.9329047997908715e+00 0 0 0
1458 2 1.8985509019290895e+01 1.2023939699526576e+01 -9.8854272782722385e-01 0 0 1
416 1 1.9934569532310501e+01 1.4052952618801715e+01 -1.0117255244470429e+00 0 0 0
415 1 2.1592163960958320e+01 1.2748820011908512e+01 1.7293261092852057e+00 0 0 0
499 1 2.4093465328237073e+01 1.2264938404311618e+01 2.5525708158036808e+00 0 0 0
505 1 2.3906080137741370e+01 1.3595064007980843e+01 3.1220346865121327e+00 0 0 0
507 2 2.4379789775110581e+01 1.5204790005485624e+01 2.7857183101858514e+00 0 0 0
4462 1 2.5184782540919034e+01 1.5090196541822280e+01 2.1885492361549006e+00 0 0 0
1476 2 2.5495024884229789e+01 1.1408366882270188e+01 1.8968408944485495e+00 0 0 0
1474 1 2.6326775875093993e+01 1.1857263284126562e+01 1.6502659132263768e+00 0 0 0
4824 2 2.7932832857195891e+01 1.1844831311019167e+01 -5.0457835820959318e-01 0 0 0
4822 1 2.8330460926423751e+01 1.2752005803403414e+01 -2.3586473903036653e-01 0 0 0
4306 1 2.7346832520252040e+01 1.4683874876070359e+01 1.1870683159327613e+00 0 0 0
4308 2 2.9017847377506126e+01 1.4081729553967071e+01 5.9478447518512323e-01 0 0 0
4464 2 2.6408534257969439e+01 1.5008413001974471e+01 1.1810406303542407e+00 0 0 0
4307 1 2.9582351705049014e+01 1.3451801672220206e+01 1.1025270718628954e+00 0 0 0
2258 1 2.9591771093809932e+01 1.4655769767899555e+01 -2.2043381298352549e-01 0 0 0
4900 1 3.2167547890639696e+01 1.2272328560673499e+01 -5.2109419050685402e-01 0 0 0
916 1 2.9853442035757460e+01 -1.2038640459161352e+00 1.5080361764584044e+01 0 0 0
2922 2 3.1311601022169956e+01 1.2172415102841327e+01 -1.0713985257605443e+00 0 0 0
2285 1 3.4572889669627841e+01 1.1648311183190440e+01 2.0722988517447938e-01 -1 0 0
2303 1 3.6039043448143602e+01 1.1169768033030900e+01 2.6936435059175596e+00 0 0 0
2765 1 3.3260951934618802e+01 1.4258254008797991e+01 1.0217104745076324e+00 0 0 0
2766 2 3.2991526663253012e+01 1.4660251240623197e+01 1.9116554163214059e+00 0 0 0
4902 2 3.4012972186828961e+01 1.2325349322823538e+01 -2.3721896411136600e-01 0 0 0
4442 1 3.4399063385692614e+01 1.2783190621838335e+01 -1.0260323229033095e+00 0 0 1
2284 1 4.0173870592581835e+01 1.1190290271744571e+01 2.1409648040521780e+00 -1 0 0
5801 1 3.8770064187814313e+01 1.4837012394676371e+01 4.0131116753220208e-01 -1 0 0
5802 2 3.9105302784089517e+01 1.4775507634281166e+01 -5.9764757773893584e-01 -1 0 0
5800 1 4.0065893060855700e+01 1.5053467373234337e+01 -6.9094346839619780e-01 -1 0 0
3232 1 3.7919437643363665e+01 1.4506131523228211e+01 2.8730780104414002e+00 0 0 0
1962 2 1.6276465169855747e-01 1.5847139955189245e+01 -4.0677163662012061e-01 0 0 1
155 1 4.4318052027853971e-01 1.6303442678773475e+01 4.9319389347595921e-01 0 0 0
2947 1 7.6939459762761597e-01 1.6339575281701254e+01 2.8394496626411403e+00 0 0 0
156 2 7.5299515732109557e-01 1.6803126849608031e+01 1.9994079899742574e+00 0 0 0
2914 1 1.5212281236566487e+00 1.7408753968054221e+01 1.8960810575469216e+00 0 0 0
1002 2 2.1763193952486453e+00 1.8999670703282373e+01 1.8293401793881090e+00 0 0 0
2915 1 -7.4017943787233820e-01 1.7657901846717174e+01 1.4990107779391733e+00 0 0 0
2027 1 1.6644317870240723e+01 1.8040045176392120e+01 -1.0885900623989726e+00 0 0 0
494 1 3.1915332066233670e+00 1.8731967028583025e+01 2.0694879967295887e+00 0 0 0
493 1 4.4135897413412719e+00 1.6962341776037228e+01 2.2089154351874165e+00 0 0 0
495 2 4.7897174367574520e+00 1.8139991798176183e+01 2.1817638903488477e+00 0 0 0
2949 2 4.2302386842812378e+00 1.5675467383672149e+01 2.5573867391989773e+00 0 0 0
1439 1 6.1256405258775155e+00 1.5751502681104601e+01 -1.0995475133734454e+00 0 0 0
4528 1 5.3563502887754861e+00 1.8341561894049782e+01 2.9916775995937117e+00 0 0 0
5173 1 5.6078998933428883e+00 1.9186263705926439e+01 -1.1215388213754423e+00 0 0 0
1440 2 6.9442928649700875e+00 1.5264685597279762e+01 -8.8133068634290157e-01 0 0 0
5462 1 8.7700289731576841e+00 1.5603441259600800e+01 2.9257205915375737e+00 0 0 0
886 1 1.2170244019591738e+01 1.5677393521696029e+01 8.6715366362110746e-02 0 0 0
2856 2 1.2529003128370489e+01 1.6884601991636881e+01 9.7565835870990725e-01 0 0 0
2854 1 1.1678709735848068e+01 1.7144075404009843e+01 1.5588883871282655e+00 0 0 0
2855 1 1.3297213148240306e+01 1.7415548699659400e+01 6.2733686791839527e-01 0 0 0
5402 1 1.3665878487877171e+01 1.8989195544782717e+01 -7.5173848357281081e-01 0 0 0
1917 2 1.0724288822530081e+01 1.7993880220355937e+01 2.7414683677164691e+00 0 0 0
1916 1 1.0475719287458876e+01 1.8933860839865805e+01 2.7050545864372610e+00 0 0 0
153 2 1.4156786328531826e+01 1.9110074914585574e+01 1.6425072653846229e-01 0 0 0
152 1 1.5271627562200781e+01 1.8084341497614467e+01 -4.0343869707349933e-02 0 0 0
2028 2 1.6276151049759587e+01 1.7700435021535473e+01 -2.4771548975790503e-01 0 0 0
2026 1 1.7349220758280172e+01 1.7783465384122589e+01 5.0706543585947261e-01 0 0 0
5873 1 1.7959484699174055e+01 1.7871214351983301e+01 2.2366732683376314e+00 0 0 0
5874 2 1.8183046948174493e+01 1.7666968343992746e+01 1.2724566539354019e+00 0 0 0
277 1 1.9973123282111175e+01 1.5536259857521060e+01 -6.1696364009613103e-01 0 0 0
5872 1 1.9601492238964521e+01 1.7245189499165207e+01 8.4411192606234753e-01 0 0 0
279 2 2.0503527813296298e+01 1.6805332462465600e+01 5.5624039543678716e-01 0 0 0
4238 1 2.1381900671976766e+01 1.6922925153832722e+01 1.0696734762754634e+00 0 0 0
278 1 1.9409090277358029e+01 1.9378021577966798e+01 -1.0741108353029203e+00 0 0 0
915 2 2.3957043893611466e+01 1.9398196205512580e+01 2.6168913176185140e+00 0 0 0
4239 2 2.3064990579810637e+01 1.6943275224044417e+01 1.4248375066081986e+00 0 0 0
4237 1 2.3516794420068450e+01 1.7866448249794690e+01 1.7106200841435641e+00 0 0 0
506 1 2.3537505280747343e+01 1.6195610439953953e+01 1.9283165949635808e+00 0 0 0
4471 1 2.3179751500284386e+01 1.7186480745415125e+01 -8.1663162246690213e-01 0 0 1
4340 1 2.6242881108434467e+01 1.5416079234188100e+01 2.8274532628330262e-01 0 0 0
5986 1 2.8650568090314799e+01 1.8399211166211664e+01 -5.9103127169366254e-01 0 0 1
5988 2 2.8849834048574017e+01 1.9238235512580594e+01 6.2745939413932028e-02 0 0 1
4414 1 3.0337496688620366e+01 1.6072550305991971e+01 1.9662056086497444e+00 0 0 0
3197 1 3.1404556936720848e+01 1.7276995266632255e+01 1.2723691215301014e+00 0 0 0
3198 2 3.1605993437029763e+01 1.8664023683291468e+01 4.2783826015180626e-01 0 0 0
3196 1 3.2165711438945209e+01 1.8252686928078546e+01 -3.8303904557594770e-01 0 0 0
4416 2 3.1257666677084668e+01 1.6540634496203673e+01 2.0680978847404221e+00 0 0 0
2599 1 3.2006259968082162e+01 1.5803817602312666e+01 2.0633832113575745e+00 0 0 0
5987 1 2.9809763077922359e+01 1.9327511136845427e+01 1.0077624516961348e-01 0 0 1
2259 2 3.0114489604992368e+01 1.5345812246633429e+01 -1.2899801806587958e+00 0 0 0
1115 1 3.4731685487956867e+01 1.5959440897864869e+01 2.4296609703691501e+00 0 0 0
2601 2 3.5604688404893608e+01 1.6466794385469367e+01 2.6351331572859915e+00 0 0 0
4162 1 3.6454846872245128e+01 1.5832373804360913e+01 2.3595310363635233e+00 0 0 0
5507 1 3.7041911424398307e+01 1.7715804542572943e+01 -1.5712100039507937e-01 0 0 0
5508 2 3.7165109461590532e+01 1.7448957079176232e+01 -1.1283827449414614e+00 0 0 0
2916 2 4.0035316497384215e+01 1.7955963508645919e+01 1.5272525629431342e+00 -1 0 0
1873 1 3.9918776207303381e+01 1.8828808378027290e+01 9.5862951897289239e-01 -1 0 0
4164 2 3.7862416108298561e+01 1.5375070476412485e+01 2.3613479758555589e+00 0 0 0
4163 1 3.8291575055874347e+01 1.6254496512203580e+01 2.5461757238531906e+00 0 0 0
5877 2 1.2735956936536841e+00 1.0531512019321836e+00 3.4204002276278427e+00 0 0 0
2434 1 6.3995970879153297e-01 1.8005746530956004e+00 3.5064276484340011e+00 1 0 0
5875 1 2.0496189322253429e+00 2.5407145844490664e-02 4.4638304301426848e+00 0 0 0
4264 1 2.0732358827237807e-01 -6.8814439266973859e-01 3.1771273606624471e+00 0 0 0
5761 1 1.9169352672666635e+00 -4.3240792661844085e-01 6.0289670405598432e+00 0 0 0
5763 2 2.2451171057550798e+00 -7.3114960639769644e-01 5.1427889574116206e+00 0 0 0
1485 2 8.1482497712987616e+00 1.3850981597751528e+00 3.3613155030905215e+00 0 0 0
1469 1 8.1136102180192129e+00 1.2831928852589680e+00 4.3600936124721548e+00 0 0 0
1470 2 8.3762882903795184e+00 1.0078591261478929e+00 5.8269277850259140e+00 0 0 0
1468 1 9.3520817759796078e+00 1.2004392706453730e+00 6.1515771341451702e+00 0 0 0
3674 1 7.6233492157899310e+00 1.3293384789091727e+00 6.4079845874748491e+00 0 0 0
1484 1 7.7050691276778913e+00 -1.1759993944181166e+00 5.3693159935583115e+00 0 0 0
62 1 1.2958718923546959e+01 1.2832604552918760e+00 3.5003279642213689e+00 0 0 0
4998 2 1.0642292460213650e+01 1.8410696284945773e+00 6.7655829881839242e+00 0 0 0
4996 1 1.1457161122661685e+01 1.6198859956744194e+00 6.2290096173982024e+00 0 0 0
5202 2 1.3245164973304250e+01 1.5261754116048678e+00 5.3634483987677841e+00 0 0 0
5200 1 1.3566296917469225e+01 2.2692826245639872e+00 5.8504205786907457e+00 0 0 0
5201 1 1.3840405830055660e+01 6.6920477868845896e-01 5.5167050092349461e+00 0 0 0
3165 2 1.4710768825241228e+01 -6.3917098268342654e-01 5.7356147820397174e+00 0 0 0
1897 1 1.6751004348594464e+01 3.9214239965680009e-01 3.6233191412016232e+00 0 0 0
5952 2 1.6762291679727127e+01 -3.6932830714751108e-01 4.2128343746985593e+00 0 0 0
5950 1 1.5523400575232319e+01 -4.5560596237280215e-01 5.1827090772818050e+00 0 0 0
5056 1 2.0113750876304415e+01 -3.8475790004512722e-01 4.6706521675531647e+00 0 1 0
5058 2 2.0931290583020228e+01 -4.6682068857835324e-01 4.0392801091321315e+00 0 1 0
5951 1 1.7843198565434683e+01 -2.7339739082903214e-01 4.9518999982055272e+00 0 0 0
3480 2 1.8756062217552302e+01 -1.2019615866969047e-01 5.6602864280442180e+00 0 0 0
3478 1 1.8783075039558629e+01 -5.9628983408978264e-01 6.4932966140107888e+00 0 0 0
4913 1 2.4311233752767301e+01 -3.5630596740495146e-01 6.8229078911428331e+00 0 0 0
3712 1 2.5342480678997376e+01 1.0113885590777461e+00 6.8602268153446158e+00 0 0 0
5057 1 2.1816071716078881e+01 -7.7874575674689206e-01 4.4212258494342578e+00 0 1 0
340 1 2.7507434588507959e+01 -1.2726838596470564e+00 3.3212815405518148e+00 0 1 0
5754 2 2.6115514705636940e+01 2.4490540268790801e+00 5.6605201595006163e+00 0 0 0
4912 1 2.7043085609180935e+01 2.7282311792230214e+00 5.4395342980938794e+00 0 0 0
5753 1 2.5675381565537979e+01 1.5611067301251036e+00 4.0033536716412179e+00 0 0 0
333 2 2.5713919643364967e+01 1.7114123366300502e+00 3.0354880748204831e+00 0 0 0
2374 1 2.9119021534307485e+01 -3.8476353680025521e-01 4.5036245972407825e+00 0 1 0
1090 1 3.2743239609435278e+01 -4.9893277782270928e-01 3.2768222791364581e+00 0 0 0
2376 2 2.9993727740437393e+01 2.3251799780366977e-01 4.6357799437103084e+00 0 1 0
2375 1 2.9744287933942537e+01 1.2204233845897914e+00 4.6267589496423440e+00 0 1 0
1091 1 3.1166809224266654e+01 -4.8856763165422168e-01 4.6300924381034427e+00 0 0 0
1753 1 3.2607742819426861e+01 -4.4317512177907248e-01 5.5265012964421656e+00 0 0 0
1726 1 2.9944908715716615e+01 4.8542165277319316e-01 6.6502970301855946e+00 0 0 0
1092 2 3.2098277946900552e+01 -1.0045321452169420e+00 4.8409435174770596e+00 0 0 0
1755 2 3.3749562579763804e+01 6.8247913377146929e-01 6.5958985025388932e+00 0 0 0
1833 2 3.4849399643632381e+01 1.5951979762580737e+00 3.4501592195765109e+00 0 0 0
1021 1 3.4814085155644761e+01 1.0315662289228844e+00 4.2689033203671976e+00 0 1 0
1831 1 3.6392672755500286e+01 2.5586540001508116e+00 3.4310425622612479e+00 0 0 0
2189 1 3.8123084885483507e+01 -6.8983115666185224e-01 6.5447958083974518e+00 0 0 0
2190 2 3.9501537567842263e+01 2.5524427770497882e-01 5.9597915237074552e+00 0 0 0
4931 1 3.9516791189418157e+01 1.2777066749634880e+00 5.8687649305171750e+00 -1 0 0
4932 2 3.9280225290644793e+01 2.8363149914675976e+00 5.3677895752080076e+00 -1 0 0
2188 1 3.9747078811313159e+01 -1.3825742212438596e-01 5.0650706119631375e+00 0 0 0
2606 1 6.6264235231004776e-02 4.4873004757533863e+00 6.1200638418592685e+00 0 0 0
2790 2 -2.2791347671259077e-01 6.8929411359469608e+00 4.0859406803228948e+00 0 0 0
1633 1 -4.9146358918889121e-01 5.4583858365549602e+00 5.0063244713885160e+00 1 0 0
5094 2 -6.7619841057146057e-01 4.6419427789278895e+00 5.5640579107191757e+00 0 0 0
1706 1 3.7060068301655971e+00 4.6145982757581763e+00 3.2518253338626790e+00 0 0 0
2696 1 4.8448666405564929e+00 3.2165811734675014e+00 6.5707757526186388e+00 0 0 0
2209 1 2.6402948691006438e+00 4.2958222415993754e+00 6.5838879507698440e+00 0 0 0
2211 2 4.6476057751683353e+00 4.3055117646317393e+00 3.2932047795760617e+00 0 0 0
2210 1 4.4699070445384512e+00 3.7791408006638001e+00 5.0067265222590747e+00 0 0 0
3675 2 4.4424552841644456e+00 3.9407622649827880e+00 5.9800350476240611e+00 0 0 0
3673 1 5.5252128855903351e+00 5.3242446448097454e+00 6.1887230156889430e+00 0 0 0