
group group1 type 1
4000 atoms in group group1
group group2 type 2
2000 atoms in group group2

fix balance all balance 1000 1.0 shift xyz 20 1.0

thermo_style custom step time temp enthalpy etotal press density spcpu cpuremain
thermo 10

minimize 1.0e-4 1.0e-6 100 1000
Neighbor list info ...
  update every 1 steps, delay 0 steps, check yes
  max neighbors/atom: 2000, page size: 100000
  master list distance cutoff = 7.5
  ghost atom cutoff = 7.5
  binsize = 3.75, bins = 11 11 11
  1 neighbor lists, perpetual/occasional/extra = 1 0 0
  (1) pair vashishta, perpetual
      attributes: full, newton on
      pair build: full/bin/atomonly
      stencil: full/bin/3d
      bin: standard
Per MPI rank memory allocation (min/avg/max) = 4.85 | 4.851 | 4.851 Mbytes
Step Time Temp Enthalpy TotEng Press Density S/CPU CPULeft 
       0            0            0   -8282.9004   -12814.557    120974.93   0.99689872            0            0 
      10       0.0025            0   -11583.317   -14137.053    68173.321   0.99689872    98.002375   0.91835401 
      20        0.005            0   -13197.514   -14623.447    38066.042   0.99689872    96.392527   0.82312696 
      30       0.0075            0   -13993.023   -14924.849    24875.585   0.99689872    98.409364   0.71726201 
      40         0.01            0   -14335.147   -15070.538    19631.639   0.99689872     95.99263   0.61735888 
      50       0.0125            0   -14651.777   -15186.105    14264.171   0.99689872    83.275137   0.53165661 
      60        0.015            0   -14840.616    -15261.23    11228.523   0.99689872    100.67848   0.42065501 
      70       0.0175            0   -14905.471   -15310.522     10813.06   0.99689872    71.488793   0.33037055 
      80         0.02            0   -14974.658   -15359.999    10286.874   0.99689872    73.067468   0.22693113 
      84        0.021            0   -15023.354   -15372.512    9320.9575   0.99689872    65.430448   0.18454441 
Loop time of 0.968926 on 4 procs for 84 steps with 6000 atoms

96.0% CPU use with 4 MPI tasks x no OpenMP threads

Minimization stats:
  Stopping criterion = energy tolerance
  Energy initial, next-to-last, final = 
        -12814.5566567     -15371.0763957     -15372.5120553
  Force two-norm initial, final = 1510.98 11.2086
  Force max component initial, final = 620.9 5.03457
  Final line search alpha, max atom move = 0.0207802 0.104619
  Iterations, force evaluations = 84 93

MPI task timing breakdown:
Section |  min time  |  avg time  |  max time  |%varavg| %total
---------------------------------------------------------------
Pair    | 0.82315    | 0.86031    | 0.91016    |   3.6 | 88.79
Neigh   | 0.013046   | 0.014653   | 0.018025   |   1.6 |  1.51
Comm    | 0.03553    | 0.085275   | 0.12413    |  12.0 |  8.80
Output  | 0.00026445 | 0.0003707  | 0.0006812  |   0.0 |  0.04
Modify  | 0          | 0          | 0          |   0.0 |  0.00
Other   |            | 0.008321   |            |       |  0.86

Nlocal:    1500 ave 1544 max 1463 min
Histogram: 1 1 0 0 0 0 1 0 0 1
Nghost:    4663.75 ave 4668 max 4652 min
Histogram: 1 0 0 0 0 0 0 0 0 3
Neighs:    0 ave 0 max 0 min
Histogram: 4 0 0 0 0 0 0 0 0 0
FullNghs:  272306 ave 286012 max 263407 min
Histogram: 2 0 0 0 0 1 0 0 0 1

Total # of neighbors = 1089224
Ave neighs/atom = 181.537
Neighbor list builds = 2
Dangerous builds = 0

velocity all create 300 1281950 mom yes rot yes

write_data ${path}minimize_300K.data
write_data ../data/ZH0.5_theta100_B40_D0.25/minimize_300K.data

# Equilibriation down
fix nvt all nvt temp 300 300 0.1
run 20000
Per MPI rank memory allocation (min/avg/max) = 3.726 | 3.726 | 3.727 Mbytes
Step Time Temp Enthalpy TotEng Press Density S/CPU CPULeft 
      84            0          300   -14635.638   -15139.883    13461.068   0.99689872            0            0 
      90       0.0015    252.17623   -14553.312   -15139.685    15653.534   0.99689872     106.8587     187.1096 
     100        0.004    223.39272   -14902.872   -15139.712    6322.5591   0.99689872     108.2605    185.50078 
     110       0.0065    190.90452   -14939.034   -15139.571    5353.4225   0.99689872     111.2652    183.14221 
     120        0.009    189.75095   -14596.341   -15139.469    14499.081   0.99689872    94.472326    190.90354 
     130       0.0115    198.14736   -14469.453    -15139.22     17879.76   0.99689872    112.74891    187.80124 
     140        0.014     206.1798    -14700.05   -15138.979    11717.435   0.99689872    112.78729    185.76447 
     150       0.0165    193.10783   -14790.471    -15138.59    9293.2202   0.99689872    112.88157     184.2957 
     160        0.019    199.89441   -14716.164    -15138.26    11268.068   0.99689872    111.18637    183.54422 
     170       0.0215     203.6424   -14650.176   -15137.792    13017.165   0.99689872    108.75811    183.41157 
     180        0.024    223.43001   -14724.743   -15137.374    11015.402   0.99689872      111.499    182.81879 
     190       0.0265    216.65857   -14644.734   -15136.865    13137.699   0.99689872     102.3795    183.82028 
     200        0.029    214.95727   -14606.375   -15136.445    14150.511   0.99689872    105.16075    184.18942 
     210       0.0315    209.74746   -14666.716   -15136.008        12528   0.99689872    108.52813    184.01952 
     220        0.034    220.38837   -14729.318    -15135.62    10846.431   0.99689872     111.1102    183.54829 
     230       0.0365    229.14361   -14642.735   -15135.225    13147.278   0.99689872    111.52688    183.08355 
     240        0.039    231.21717   -14590.538   -15134.836     14530.32   0.99689872    102.18256    183.70994 
     250       0.0415    228.81118   -14664.407    -15134.46    12548.304   0.99689872    111.74041    183.24888 
     260        0.044    230.55118   -14698.885   -15134.081    11617.766   0.99689872    109.76443    183.01152 
     270       0.0465    241.20926    -14646.34   -15133.714    13010.689   0.99689872    108.93689    182.86362 
     280        0.049    247.06725   -14617.232   -15133.318    13777.184   0.99689872    93.022221    184.30827 
     290       0.0515    250.00593   -14671.568   -15132.918    12315.979   0.99689872    110.45606    183.97186 
     300        0.054    251.09102   -14683.208     -15132.5    11994.091   0.99689872    111.16996    183.60497 
     310       0.0565    256.45173   -14646.409    -15132.09    12965.507   0.99689872    104.15798    183.79243 
     320        0.059     262.1806   -14642.273   -15131.663    13064.512   0.99689872      112.143    183.38338 
     330       0.0615    266.28396   -14660.618   -15131.231    12563.243   0.99689872    109.13796    183.19748 
     340        0.064    265.25644   -14630.051   -15130.786    13367.379   0.99689872    109.57432    182.99081 
     350       0.0665    268.77434   -14624.457   -15130.352    13505.147   0.99689872    111.79779    182.65817 
     360        0.069    272.40744   -14643.662   -15129.909    12980.607   0.99689872    112.16608    182.32217 
     370       0.0715    277.04933   -14649.195   -15129.465    12821.052   0.99689872    112.12304    182.00578 
     380        0.074    281.38115   -14630.108   -15129.017    13318.634   0.99689872    112.09298    181.70633 
     390       0.0765    284.11828   -14625.135   -15128.576    13439.627   0.99689872    101.71168    182.00665 
     400        0.079    287.18914   -14641.062   -15128.142    13002.845   0.99689872    108.85168    181.88002 
     410       0.0815    291.34379   -14637.231   -15127.711    13093.627   0.99689872    110.62724    181.66654 
     420        0.084    294.18563   -14613.934   -15127.287    13704.215   0.99689872    111.40085    181.42365 
     430       0.0865    296.95163   -14615.658   -15126.881    13647.344   0.99689872    111.53046    181.18369 
     440        0.089    298.82395   -14616.909    -15126.48    13603.285   0.99689872    111.24312    180.96495 
     450       0.0915    299.83863   -14595.517   -15126.095     14164.06   0.99689872    97.961618    181.40706 
     460        0.094    302.41074   -14588.733   -15125.724     14335.24   0.99689872     100.1824    181.70211 
     470       0.0965    303.70825    -14600.61   -15125.363    14008.563   0.99689872     108.4833    181.58859 
     480        0.099    308.60546   -14613.774   -15125.026    13648.138   0.99689872    111.22843    181.36354 
     490       0.1015    309.95214   -14583.091   -15124.687    14458.175   0.99689872    110.46423    181.17516 
     500        0.104    313.97643   -14572.571   -15124.379    14730.801   0.99689872    110.59951    180.98626 
     510       0.1065    314.18178   -14578.551   -15124.078    14563.118   0.99689872    110.76209     180.7959 
     520        0.109    316.24956   -14595.704   -15123.809    14098.028   0.99689872    99.357097    181.07515 
     530       0.1115    317.00816   -14601.408   -15123.553    13938.932   0.99689872    103.93549    181.14297 
     540        0.114    320.13656   -14609.122   -15123.324    13726.885   0.99689872    108.16726    181.04228 
     550       0.1165    320.61627   -14596.914   -15123.109    14047.057   0.99689872    110.93532    180.84526 
     560        0.119    321.32518    -14583.75   -15122.922    14393.468   0.99689872    110.27201    180.67495 
     570       0.1215    324.81535   -14584.652   -15122.765    14365.207   0.99689872    108.98512    180.55092 
     580        0.124    323.81123   -14582.648   -15122.623    14414.895   0.99689872    100.80561    180.72095 
     590       0.1265    326.05341   -14611.009   -15122.517    13654.961   0.99689872    99.435702    180.93301 
     600        0.129    325.63195   -14607.172   -15122.425     13754.96   0.99689872    105.30644    180.92122 
     610       0.1315    328.63211   -14601.676   -15122.375    13900.319   0.99689872    93.099493    181.36726 
     620        0.134    330.44126   -14606.481   -15122.348    13771.327   0.99689872    107.50658    181.26993 
     630       0.1365    331.85171   -14613.083   -15122.355    13595.295   0.99689872    108.62101    181.13876 
     640        0.139    330.45866   -14600.797   -15122.388    13924.143   0.99689872     108.6182    181.00908 
     650       0.1415    330.87246   -14610.803   -15122.463    13659.039   0.99689872    102.44353    181.07126 
     660        0.144    330.31726   -14624.976   -15122.568    13283.493   0.99689872    89.443607    181.60634 
     670       0.1465    331.47669   -14622.892   -15122.709    13342.879   0.99689872     101.7593    181.67104 
     680        0.149    332.71279   -14610.757    -15122.88    13671.393   0.99689872    102.31457    181.71291 
     690       0.1515    332.63165   -14622.759   -15123.086    13356.502   0.99689872     108.1725     181.5808 
     700        0.154    332.24952   -14650.136   -15123.331    12632.175   0.99689872     107.4745    181.46885 
     710       0.1565    331.09297   -14638.886   -15123.601    12939.716   0.99689872    101.14201    181.53781 
     720        0.159    331.51619   -14607.155   -15123.908     13794.98   0.99689872    102.56347    181.55977 
     730       0.1615    331.46368   -14618.114   -15124.243    13511.374   0.99689872    97.330022     181.7351 
     740        0.164    330.94958   -14657.228   -15124.607    12476.937   0.99689872    108.79763    181.58261 
     750       0.1665    330.41541    -14655.16   -15124.996    12542.518   0.99689872    108.83683    181.43098 
     760        0.169    331.47327    -14625.76   -15125.416    13338.584   0.99689872    94.297929    181.68608 
     770       0.1715    331.94721   -14627.486   -15125.855    13304.213   0.99689872    107.83067    181.55593 
     780        0.174    332.43882   -14656.242   -15126.318    12548.905   0.99689872    106.44334    181.46039 
     790       0.1765    332.03212   -14649.554   -15126.797     12740.25   0.99689872    107.45794    181.34065 
     800        0.179    332.08481   -14622.237   -15127.302    13482.978   0.99689872     100.3719    181.39861 
     810       0.1815    331.17608   -14611.431   -15127.813      13785.1   0.99689872    108.58723     181.2521 
     820        0.184    331.19642    -14635.11   -15128.337    13166.962   0.99689872    110.13156    181.07328 
     830       0.1865    330.68737   -14659.405   -15128.869    12532.591   0.99689872    109.01673    180.92078 
     840        0.189    331.77906   -14666.958   -15129.414    12345.514   0.99689872    110.20122    180.74479 
     850       0.1915    332.58849   -14646.077   -15129.966    12917.669   0.99689872    110.24206    180.57019 
     860        0.194    334.42029    -14643.04   -15130.525     13013.68   0.99689872      105.072    180.50832 
     870       0.1965    333.82813   -14656.227   -15131.087     12676.66   0.99689872    103.56862    180.47937 
     880        0.199    333.38143   -14672.481   -15131.662    12258.075   0.99689872     96.95912    180.60752 
     890       0.2015    334.43818   -14669.675   -15132.245    12348.548   0.99689872      105.639    180.52813 
     900        0.204    334.07267   -14646.704    -15132.82    12977.103   0.99689872     102.5139     180.5162 
     910       0.2065    334.36863   -14659.001   -15133.402    12664.367   0.99689872    104.53339    180.45845 
     920        0.209     334.8415    -14699.82   -15133.989    11590.385   0.99689872    93.623919    180.65533 
     930       0.2115    334.32575   -14696.403   -15134.583    11697.426   0.99689872    109.28024    180.49856 
     940        0.214    334.06718   -14651.755   -15135.175    12905.161   0.99689872    108.60368    180.35608 
     950       0.2165    332.99986   -14648.714   -15135.762    13001.986   0.99689872    100.28071     180.3836 
     960        0.219    332.07345   -14693.942   -15136.352    11810.365   0.99689872    108.75207    180.23865 
     970       0.2215    330.86974   -14697.795    -15136.94      11723.2   0.99689872    110.20356    180.06876 
     980        0.224     332.4204   -14663.301   -15137.531    12659.824   0.99689872    108.87293    179.92429 
     990       0.2265    330.61774   -14641.901   -15138.107    13246.469   0.99689872    110.32902    179.75542 
    1000        0.229    332.51023   -14685.543   -15138.703    12097.349   0.99689872    102.46955    179.73311 
    1010       0.2315    330.20564   -14706.034   -15139.279    11565.692   0.99689872    112.01073    179.53794 
    1020        0.234    330.60501   -14694.778   -15139.861    11881.716   0.99689872    111.60005    179.35173 
    1030       0.2365    333.30858   -14681.916   -15140.449    12240.767   0.99689872      111.866    179.16326 
    1040        0.239    332.82805   -14674.505   -15141.038    12454.334   0.99689872    111.54126    178.98205 
    1050       0.2415    330.84519   -14677.679   -15141.618    12385.077   0.99689872    108.32601    178.85518 
    1060        0.244    331.71815   -14687.496   -15142.211    12138.848   0.99689872    104.18158    178.80058 
    1070       0.2465    329.81654   -14675.664   -15142.789    12470.149   0.99689872    97.347522     178.8751 
    1080        0.249    334.07341   -14690.438   -15143.389    12091.772   0.99689872    93.221414    179.03281 
    1090       0.2515    333.12181   -14682.791   -15143.979    12311.661   0.99689872    103.50104    178.98409 
    1100        0.254    329.99409   -14677.529   -15144.568    12467.856   0.99689872    109.71146    178.83224 
    1110       0.2565    329.99991   -14690.019    -15145.16    12150.222   0.99689872    111.13502    178.65998 
    1120        0.259    330.00162   -14695.763   -15145.749    12012.603   0.99689872    110.88217    178.49306 
    1130       0.2615    330.67077   -14705.032   -15146.344     11781.05   0.99689872    103.36521    178.44646 
    1140        0.264    328.49633   -14706.652   -15146.929     11753.43   0.99689872    111.98855    178.26526 
    1150       0.2665    326.94183   -14695.985   -15147.516    12053.872   0.99689872    111.65232    178.09057 
    1160        0.269    324.44293   -14677.023   -15148.088     12575.32   0.99689872    112.55289    177.90485 
    1170       0.2715    324.34229   -14688.682   -15148.658    12279.298   0.99689872    111.78265    177.73159 
    1180        0.274     324.2008   -14703.413   -15149.224    11901.156   0.99689872    110.20416    177.58195 
    1190       0.2765    325.64452   -14699.266   -15149.788    12026.939   0.99689872     111.7738    177.41161 
    1200        0.279    327.31577   -14691.661   -15150.355    12245.083   0.99689872    103.11449    177.36985 
    1210       0.2815    327.90169    -14694.05   -15150.919    12196.357   0.99689872    111.65985     177.2027 
    1220        0.284    328.97877   -14708.078   -15151.487    11837.019   0.99689872     111.0059    177.04568 
    1230       0.2865    327.61254   -14707.417   -15152.059    11869.955   0.99689872    109.43014    176.91117 
    1240        0.289    325.71906   -14705.642   -15152.629    11932.556   0.99689872    109.19219    176.78065 
    1250       0.2915    325.80389    -14701.49   -15153.203    12058.709   0.99689872    92.966561    176.90898 
    1260        0.294    323.49313   -14684.637   -15153.756    12523.385   0.99689872    107.53167    176.80009 
    1270       0.2965     327.4926   -14711.267   -15154.332    11827.847   0.99689872    101.22884    176.78332 
    1280        0.299    326.17237   -14726.413   -15154.884    11438.276   0.99689872    110.53182    176.63445 
    1290       0.3015    329.14464   -14742.889   -15155.469    11014.021   0.99689872    111.48175    176.47454 
    1300        0.304    326.43015   -14711.336   -15156.035    11871.485   0.99689872    111.97275    176.30971 
    1310       0.3065    326.01668   -14708.216    -15156.61    11970.115   0.99689872     110.9064    176.15925 
    1320        0.309    323.98281   -14736.773    -15157.17    11222.725   0.99689872    111.71395    175.99988 
    1330       0.3115    326.32159   -14767.857   -15157.743    10408.199   0.99689872    104.06094    175.94072 
    1340        0.314    328.06757   -14750.453   -15158.311    10887.985   0.99689872    110.85398    175.79308 
    1350       0.3165    329.72273   -14729.308   -15158.889    11467.884   0.99689872    111.30172    175.64099 
    1360        0.319    329.67396   -14737.529   -15159.472    11264.003   0.99689872    111.36142    175.48916 
    1370       0.3215    328.29893   -14740.821   -15160.054    11191.637   0.99689872    112.15754    175.32902 
    1380        0.324    329.48773   -14740.221   -15160.645    11223.434   0.99689872    111.68796    175.17539 
    1390       0.3265    325.21626   -14723.934   -15161.224    11673.689   0.99689872    111.05097    175.03009 
    1400        0.329    325.81272   -14752.424   -15161.814    10928.883   0.99689872    111.37174    174.88195 
    1410       0.3315    325.98194   -14768.389   -15162.383     10517.88   0.99689872    89.824759    175.03801 
    1420        0.334    329.18456   -14757.799    -15162.98    10816.515   0.99689872    110.58087    174.89815 
    1430       0.3365    326.84136   -14738.467   -15163.553    11347.888   0.99689872    110.59962    174.75881 
    1440        0.339    328.06387   -14767.855    -15164.15    10579.297   0.99689872    111.37096    174.61158 
    1450       0.3415    323.98804   -14775.681   -15164.724    10385.721   0.99689872    110.67184    174.47293 
    1460        0.344    324.43164   -14776.449   -15165.307    10380.764   0.99689872    105.21995    174.39835 
    1470       0.3465    324.69354   -14773.465    -15165.88    10475.713   0.99689872    98.197629    174.41475 
    1480        0.349     325.3541    -14779.03   -15166.456    10342.542   0.99689872    96.656007     174.4511 
    1490       0.3515    325.50397   -14770.027   -15167.039    10598.433   0.99689872    103.42646    174.39589 
    1500        0.354    322.59197   -14758.345    -15167.61    10925.562   0.99689872    105.28656    174.31769 
    1510       0.3565    321.37711   -14781.724   -15168.177    10316.559   0.99689872    106.25903    174.22792 
    1520        0.359    320.91521   -14788.806   -15168.738    10142.484   0.99689872    108.30048    174.11516 
    1530       0.3615    320.79266   -14750.813   -15169.301    11171.761   0.99689872     110.5522    173.97856 
    1540        0.364    318.51525   -14732.726    -15169.85     11669.25   0.99689872    112.08753     173.8268 
    1550       0.3665     316.4637   -14777.972   -15170.388    10475.734   0.99689872    101.72365    173.79082 
    1560        0.369    317.95964   -14804.379   -15170.928    9785.1936   0.99689872    109.94331    173.66175 
    1570       0.3715    320.73781     -14769.1   -15171.468    10741.424   0.99689872    95.896213    173.69919 
    1580        0.374    321.34474   -14752.055   -15172.007    11210.828   0.99689872    111.45248     173.5547 
    1590       0.3765    319.12337   -14784.335   -15172.539    10363.309   0.99689872    110.15728     173.4239 
    1600        0.379    317.66376   -14797.954   -15173.064    10013.756   0.99689872    111.11021    173.28413 
    1610       0.3815    319.29851   -14767.003   -15173.598    10854.249   0.99689872    111.70574    173.13921 
    1620        0.384    320.07888   -14756.033   -15174.126      11161.2   0.99689872    102.88819    173.08723 
    1630       0.3865     319.9193   -14788.308   -15174.656    10313.778   0.99689872    110.67458    172.95305 
    1640        0.389    319.06051   -14801.035    -15175.18    9987.9864   0.99689872    111.97918    172.80695 
    1650       0.3915    322.54221   -14785.435   -15175.715    10418.712   0.99689872    111.81159    172.66315 
    1660        0.394    322.03582   -14770.902   -15176.244     10820.83   0.99689872    110.19007    172.53542 
    1670       0.3965    322.31173   -14813.696   -15176.784    9692.8349   0.99689872    111.31555    172.39752 
    1680        0.399    321.53191   -14835.605   -15177.322    9122.2983   0.99689872    111.25039    172.26081 
    1690       0.4015    320.09462   -14799.292    -15177.86    10106.073   0.99689872    102.49945    172.21259 
    1700        0.404    317.57477   -14771.143    -15178.39    10871.688   0.99689872    111.21906    172.07674 
    1710       0.4065     319.3711   -14814.764   -15178.927    9721.5221   0.99689872     111.9699    171.93464 
    1720        0.409    319.88697   -14845.219   -15179.457    8922.6634   0.99689872    110.67968    171.80488 
    1730       0.4115    320.11162   -14824.969   -15179.991    9477.4872   0.99689872    111.59754     171.6673 
    1740        0.414    319.50738   -14795.315   -15180.526    10283.409   0.99689872    95.524659    171.69732 
    1750       0.4165    317.24127   -14784.844   -15181.054    10577.024   0.99689872    110.59882    171.56871 
    1760        0.419    315.39048   -14801.094   -15181.572    10157.073   0.99689872    111.34653    171.43392 
    1770       0.4215    317.06227   -14825.357   -15182.094    9523.2714   0.99689872    102.13867     171.3876 
    1780        0.424    317.93908   -14811.993   -15182.616    9893.9814   0.99689872    111.50404    171.25193 
    1790       0.4265    316.75123   -14782.124   -15183.131    10705.106   0.99689872    110.91942    171.12186 
    1800        0.429    315.43668   -14790.128   -15183.643    10505.099   0.99689872    112.03109    170.98273 
    1810       0.4315    313.98227   -14822.973   -15184.155    9641.9571   0.99689872    110.97766    170.85315 
    1820        0.434    314.07343   -14831.786   -15184.654    9420.0037   0.99689872    111.41894    170.72026 
    1830       0.4365    317.75714   -14812.876   -15185.163    9938.4072   0.99689872    102.94928    170.66507 
    1840        0.439    317.43504   -14791.881   -15185.667    10512.328   0.99689872    111.23305    170.53424 
    1850       0.4415    316.22484   -14817.718   -15186.172     9836.075   0.99689872    111.17704    170.40435 
    1860        0.444    310.68906   -14834.621   -15186.657    9397.7923   0.99689872    110.98759    170.27648 
    1870       0.4465    312.69129   -14819.599   -15187.156    9812.1224   0.99689872     110.8295    170.15034 
    1880        0.449    313.10733   -14777.938   -15187.641    10937.239   0.99689872    110.28293    170.02914 
    1890       0.4515    316.45207   -14808.546   -15188.138    10133.386   0.99689872    110.76567    169.90429 
    1900        0.454    312.38304   -14831.737   -15188.614    9527.0023   0.99689872    97.745379    169.90024 
    1910       0.4565    311.14481   -14826.912   -15189.091    9668.5695   0.99689872    100.45238    169.86768 
    1920        0.459    312.61579   -14808.066   -15189.574    10184.548   0.99689872    110.06479    169.74837 
    1930       0.4615    311.91556   -14807.749   -15190.041    10205.471   0.99689872    111.59992    169.61708 
    1940        0.464    315.30083   -14848.754   -15190.524    9123.7224   0.99689872    110.69916    169.49337 
    1950       0.4665    309.98156   -14823.769    -15190.98    9802.8993   0.99689872    110.46812    169.37185 
    1960        0.469    312.15558   -14822.359   -15191.454    9853.1827   0.99689872    109.35172    169.25959 
    1970       0.4715     313.5244   -14837.862   -15191.919    9451.7432   0.99689872    108.75417    169.15237 
    1980        0.474    312.96689   -14852.493   -15192.382    9073.5208   0.99689872    108.87376    169.04436 
    1990       0.4765    313.06123   -14853.113   -15192.845    9069.3126   0.99689872    100.41468    169.00996 
    2000        0.479    313.57853   -14834.631   -15193.314    9575.2362   0.99689872    102.75462    168.95349 
    2010       0.4815    311.91546   -14818.789   -15193.773    10010.397   0.99689872     112.3285    168.81875 
    2020        0.484    312.41387   -14833.861   -15194.237    9620.4124   0.99689872    111.97159    168.68713 
    2030       0.4865    311.16825   -14839.856   -15194.698    9472.6707   0.99689872    112.61068    168.55124 
    2040        0.489    309.03752   -14820.549   -15195.145    10000.041   0.99689872    112.48077    168.41678 
    2050       0.4915    308.89013    -14805.01   -15195.602    10427.061   0.99689872    113.24059    168.27731 
    2060        0.494    307.05302   -14814.287   -15196.044    10191.191   0.99689872    104.62019    168.20473 
    2070       0.4965    307.05527   -14854.129   -15196.479    9139.2007   0.99689872    97.514881    168.19509 
    2080        0.499    305.72849   -14849.892   -15196.908    9263.7859   0.99689872    111.57439    168.06796 
    2090       0.5015    304.70833   -14811.369   -15197.332    10303.468   0.99689872    111.56298    167.94129 
    2100        0.504    305.49109   -14818.705   -15197.753    10118.863   0.99689872    110.88489    167.81987 
    2110       0.5065    303.23818   -14846.245   -15198.156    9394.4406   0.99689872    112.10676    167.69004 
    2120        0.509    304.37963   -14857.956   -15198.561    9092.6322   0.99689872    111.36183    167.56588 
    2130       0.5115    305.86076   -14828.373   -15198.961    9893.0523   0.99689872    104.72999    167.49195 
    2140        0.514    307.48141   -14817.868   -15199.361    10184.154   0.99689872    111.36615    167.36815 
    2150       0.5165    306.59038   -14837.368   -15199.755    9674.1178   0.99689872    111.42955    167.24424 
    2160        0.519     307.0765   -14865.831   -15200.154    8924.9094   0.99689872    111.75521     167.1184 
    2170       0.5215    304.62698   -14851.921   -15200.533    9306.3932   0.99689872    111.84947    166.99226 
    2180        0.524    305.45317   -14835.882   -15200.925    9745.0157   0.99689872    111.47481    166.86903 
    2190       0.5265    305.53091   -14845.163   -15201.307    9507.4368   0.99689872    111.46304    166.74621 
    2200        0.529     306.1277   -14871.264   -15201.693    8820.9809   0.99689872    112.23704    166.61847 
    2210       0.5315    304.25044   -14857.015   -15202.066     9211.311   0.99689872    103.15252    166.55706 
    2220        0.534    305.43973   -14836.883   -15202.442    9758.7744   0.99689872    111.33701    166.43572 
    2230       0.5365    306.43415   -14834.368   -15202.813    9835.8341   0.99689872    97.658916    166.41934 
    2240        0.539    306.79273   -14849.562   -15203.185    9440.1595   0.99689872    109.10282    166.31326 
    2250       0.5415    307.45046   -14861.758   -15203.561    9124.6213   0.99689872    110.81578    166.19565 
    2260        0.544    305.71408   -14855.727   -15203.932    9295.5025   0.99689872    111.30338    166.07505 
    2270       0.5465     305.6166   -14865.698   -15204.304    9039.2677   0.99689872     110.2475    165.96175 
    2280        0.549     303.3359    -14866.99   -15204.669    9014.5261   0.99689872    111.44439    165.84076 
    2290       0.5515    303.66903   -14866.619   -15205.033    9034.1408   0.99689872    111.32394    165.72083 
    2300        0.554     302.6967   -14857.892   -15205.383     9276.436   0.99689872    103.59795    165.65493 
    2310       0.5565     305.4587   -14865.126   -15205.746    9093.0352   0.99689872     110.9154    165.53792 
    2320        0.559    303.99961   -14852.706   -15206.096    9433.9356   0.99689872    110.31028    165.42506 
    2330       0.5615    304.15512   -14856.159   -15206.449    9351.1933   0.99689872    111.43898    165.30516 
    2340        0.564    305.05193   -14877.471   -15206.799    8791.5904   0.99689872    111.21554    165.18693 
    2350       0.5665    304.95823    -14889.59   -15207.143    8477.2524   0.99689872    110.51644    165.07341 
    2360        0.569      307.556    -14888.18   -15207.498    8524.3511   0.99689872    111.60139    164.95324 
    2370       0.5715    307.33521    -14844.51   -15207.854    9699.6511   0.99689872    110.50281    164.84024 
    2380        0.574    304.93844   -14819.458   -15208.197    10377.597   0.99689872    101.89477    164.78638 
    2390       0.5765     305.2065   -14861.309   -15208.552    9269.8468   0.99689872    110.71922    164.67213 
    2400        0.579    303.12283   -14886.614   -15208.891    8603.3505   0.99689872    95.344337    164.66929 
    2410       0.5815    305.85917   -14880.636   -15209.245     8772.399   0.99689872    93.997144    164.67699 
    2420        0.584    305.55246   -14851.938   -15209.585     9547.578   0.99689872    109.27034    164.57127 
    2430       0.5865    305.94984   -14851.356   -15209.934    9572.4337   0.99689872    109.68107     164.4631 
    2440        0.589     304.5737   -14863.722   -15210.282    9251.5922   0.99689872    110.79774    164.34819 
    2450       0.5915    302.85745   -14863.718   -15210.618    9260.6952   0.99689872    102.08207    164.29092 
    2460        0.594     302.0322   -14860.985   -15210.961    9342.8092   0.99689872    109.79915    164.18223 
    2470       0.5965    300.04723   -14869.034   -15211.293     9136.786   0.99689872     109.5683    164.07511 
    2480        0.599    300.03985   -14871.189   -15211.617    9087.9102   0.99689872    110.77454    163.96083 
    2490       0.6015    301.94792   -14854.891   -15211.944    9531.7195   0.99689872      110.164     163.8504 
    2500        0.604    301.61608   -14829.793   -15212.262    10210.203   0.99689872    109.50736    163.74409 
    2510       0.6065     304.1182     -14852.6   -15212.578    9609.7787   0.99689872    101.93518    163.68705 
    2520        0.609    307.14099   -14890.575   -15212.903    8604.7173   0.99689872    109.50095     163.5808 
    2530       0.6115    305.80976   -14879.839   -15213.225    8899.9264   0.99689872    108.27115    163.48211 
    2540        0.614    305.69623   -14865.164   -15213.548    9300.3033   0.99689872    108.26384    163.38352 
    2550       0.6165    304.89981   -14861.699   -15213.871    9401.4196   0.99689872     108.8747     163.2813 
    2560        0.619    306.73872   -14873.081   -15214.199    9106.3122   0.99689872    86.445066    163.34783 
    2570       0.6215    306.05025   -14863.945   -15214.524    9358.8738   0.99689872    109.93411    163.23877 
    2580        0.624    304.17408   -14857.587    -15214.85    9537.3225   0.99689872    108.89566    163.13593 
    2590       0.6265    302.38869   -14866.835   -15215.167    9298.9287   0.99689872     109.4159    163.03013 
    2600        0.629    303.73003   -14866.355   -15215.493    9320.4263   0.99689872    107.97865     162.9329 
    2610       0.6315    306.34691   -14856.798    -15215.82    9584.2861   0.99689872     99.77457    162.88838 
    2620        0.634    307.23219   -14862.595   -15216.142    9438.1174   0.99689872    100.41854      162.839 
    2630       0.6365    305.86844   -14872.193   -15216.469    9190.6258   0.99689872    102.49979    162.77536 
    2640        0.639    303.10387    -14858.28   -15216.793    9570.6873   0.99689872    102.77335    162.70969 
    2650       0.6415    302.99688   -14844.476   -15217.117    9947.8557   0.99689872    107.64521    162.61385 
    2660        0.644    301.56668   -14840.355   -15217.437    10066.408   0.99689872     106.9969    162.52184 
    2670       0.6465    299.04579   -14852.665   -15217.744    9745.9963   0.99689872    103.16737    162.45318 
    2680        0.649    301.32796   -14872.317   -15218.063     9229.862   0.99689872     104.0228    162.37895 
    2690       0.6515    299.13109   -14853.303   -15218.359    9745.3527   0.99689872    99.603787    162.33303 
    2700        0.654    302.03568   -14866.013   -15218.668    9414.3081   0.99689872    108.27457    162.23326 
    2710       0.6565    301.19756   -14878.405   -15218.962    9091.3443   0.99689872    106.42567    162.14417 
    2720        0.659    302.54034   -14887.039   -15219.269    8869.0507   0.99689872    93.192589    162.14292 
    2730       0.6615    300.76572   -14867.748   -15219.553    9391.6189   0.99689872    105.91807    162.05632 
    2740        0.664    301.17806   -14874.028   -15219.857    9232.0916   0.99689872    105.18313    161.97398 
    2750       0.6665    296.88067   -14877.543   -15220.136    9145.6879   0.99689872    105.59368    161.88913 
    2760        0.669    297.22867   -14881.123   -15220.418    9057.6469   0.99689872    98.317343    161.84958 
    2770       0.6715    297.68456   -14871.962   -15220.693    9309.5505   0.99689872    107.71364    161.75237 
    2780        0.674    295.52931   -14866.423   -15220.953    9464.3716   0.99689872    108.33098    161.65181 
    2790       0.6765    297.36469   -14877.056   -15221.219    9187.6017   0.99689872    106.39775    161.56202 
    2800        0.679    296.58641   -14856.553   -15221.468    9741.5938   0.99689872    106.94982    161.46911 
    2810       0.6815    297.54709   -14849.501   -15221.725    9936.7072   0.99689872    107.23668    161.37462 
    2820        0.684    297.10789   -14880.211   -15221.966    9123.3369   0.99689872    106.45148    161.28447 
    2830       0.6865    296.26698   -14914.626   -15222.205    8210.9732   0.99689872    100.16662    161.23133 
    2840        0.689     298.9343    -14918.35   -15222.446    8117.9909   0.99689872     107.2215    161.13676 
    2850       0.6915    296.97357   -14871.466   -15222.673    9375.6376   0.99689872    106.99857     161.0434 
    2860        0.694    295.29546   -14859.683   -15222.902    9696.3244   0.99689872    107.79436    160.94576 
    2870       0.6965    295.34407   -14889.522   -15223.117    8905.4982   0.99689872    107.63809    160.84899 
    2880        0.699    298.74679   -14898.476   -15223.333    8672.2388   0.99689872    93.273901    160.84028 
    2890       0.7015    299.64226   -14865.338   -15223.544    9562.4838   0.99689872    106.52026    160.74917 
    2900        0.704    300.73628   -14869.405   -15223.763    9459.7706   0.99689872    106.93026    160.65585 
    2910       0.7065    296.15605   -14904.303   -15223.959    8533.3648   0.99689872    99.434185    160.60536 
    2920        0.709    298.19895   -14937.824   -15224.174    7644.2688   0.99689872     108.9537    160.50135 
    2930       0.7115    297.00595   -14894.981   -15224.368    8793.1624   0.99689872    108.82338    160.39809 
    2940        0.714    298.63763   -14882.963   -15224.571    9119.3893   0.99689872    109.53509    160.29132 
    2950       0.7165    296.57323   -14894.336   -15224.764    8820.9577   0.99689872    107.97487    160.19254 
    2960        0.719      295.751   -14892.294   -15224.954    8880.5307   0.99689872    108.91301    160.08906 
    2970       0.7215    296.31386   -14879.206   -15225.135    9234.7527   0.99689872    109.45667    159.98295 
    2980        0.724    298.34591   -14889.759   -15225.322     8958.019   0.99689872    109.57096    159.87639 
    2990       0.7265    299.04143   -14906.618   -15225.494    8512.5673   0.99689872    100.14206    159.82047 
    3000        0.729    300.76056   -14895.399   -15225.677    8816.9426   0.99689872    101.65982    159.75552 
    3010       0.7315    299.69401   -14875.218   -15225.852    9360.3613   0.99689872    110.36239    159.64508 
    3020        0.734    299.75006   -14904.121   -15226.029    8593.5081   0.99689872    111.36207    159.53005 
    3030       0.7365    298.81116   -14908.293   -15226.206    8486.8517   0.99689872     111.4566    159.41474 
    3040        0.739    297.92803   -14864.601   -15226.379     9657.845   0.99689872    95.139326    159.38834 
    3050       0.7415    298.72865   -14866.922   -15226.554    9600.5832   0.99689872    107.31203    159.29293 
    3060        0.744    294.91915    -14905.85   -15226.716    8565.6766   0.99689872    108.61655    159.19113 
    3070       0.7465    297.13024   -14919.462   -15226.886    8206.8506   0.99689872    102.37816    159.12137 
    3080        0.749    296.33893   -14845.349   -15227.036    10189.324   0.99689872    111.22584    159.00732 
    3090       0.7515     297.8413   -14838.767   -15227.203    10369.491   0.99689872    111.88367    158.89044 
    3100        0.754    293.98769   -14894.563   -15227.337    8883.5699   0.99689872    111.75516    158.77432 
    3110       0.7565    297.64013   -14931.781   -15227.492    7894.1704   0.99689872    111.76909    158.65832 
    3120        0.759    299.33677   -14884.998   -15227.637    9146.9434   0.99689872    111.67322    158.54292 
    3130       0.7615      301.339   -14873.663   -15227.788    9453.5523   0.99689872     111.2859    158.42943 
    3140        0.764    297.90478   -14899.788   -15227.925    8759.7625   0.99689872    104.02667    158.35085 
    3150       0.7665    296.29448   -14906.834   -15228.066    8575.4424   0.99689872     112.1988    158.23349 
    3160        0.769    298.53064   -14890.707   -15228.209    9009.7897   0.99689872    111.26942    158.12041 
    3170       0.7715    298.56731   -14878.225   -15228.345    9346.6167   0.99689872    110.64233    158.01028 
    3180        0.774    298.86568   -14896.879   -15228.477    8852.1946   0.99689872    110.71813    157.89993 
    3190       0.7765    300.76904   -14910.487   -15228.618     8492.674   0.99689872    110.88321    157.78898 
    3200        0.779    298.73245   -14898.633   -15228.742    8812.4375   0.99689872    96.922717    157.74855 
    3210       0.7815    301.17703   -14919.559   -15228.885     8257.632   0.99689872    98.387645    157.69942 
    3220        0.784    296.85454   -14903.888   -15229.001    8679.0774   0.99689872    107.73729    157.60253 
    3230       0.7865    298.93303   -14880.124   -15229.148    9317.3962   0.99689872    109.59469    157.49724 
    3240        0.789    296.74988   -14863.873   -15229.267    9754.3853   0.99689872    109.30262    157.39334 
    3250       0.7915     300.6806   -14915.238   -15229.398      8386.65   0.99689872     110.6846    157.28344 
    3260        0.794    299.15044   -14912.854   -15229.516    8453.4638   0.99689872    109.09605    157.18063 
    3270       0.7965    302.32649   -14888.702   -15229.655    9101.9019   0.99689872    110.10768    157.07345 
    3280        0.799    298.33358   -14856.037   -15229.767    9976.9108   0.99689872    109.95901    156.96702 
    3290       0.8015     299.6669   -14881.002   -15229.904    9314.1301   0.99689872    110.31609    156.85914 
    3300        0.804    298.41055     -14890.6   -15230.021    9061.0386   0.99689872    102.46189    156.78763 
    3310       0.8065    299.29816   -14893.473   -15230.147    8987.6831   0.99689872    110.19532    156.68035 
    3320        0.809    298.60556   -14899.604   -15230.267    8827.2223   0.99689872    102.67532     156.6076 
    3330       0.8115    296.83994   -14906.495   -15230.384    8646.3824   0.99689872    99.580714    156.55032 
    3340        0.814    296.94269   -14912.187   -15230.504    8497.6311   0.99689872    102.51181    156.47801 
    3350       0.8165    296.56487   -14924.629    -15230.61    8168.3121   0.99689872    105.94534    156.38935 
    3360        0.819    297.98843   -14931.775   -15230.727     7980.672   0.99689872    93.216714    156.36645 
    3370       0.8215    295.85381   -14894.151   -15230.831    8987.8529   0.99689872    105.65052    156.27882 
    3380        0.824    295.80315   -14877.575   -15230.935    9433.1437   0.99689872    101.56115    156.21046 
    3390       0.8265    294.97315   -14908.526   -15231.033    8609.4781   0.99689872    111.15584      156.099 
    3400        0.829    293.65489   -14937.985   -15231.123    7825.4787   0.99689872    110.35369    155.99097 
    3410       0.8315    295.35104   -14913.044   -15231.213    8493.6738   0.99689872    111.39707    155.87878 
    3420        0.834    298.88344   -14889.035   -15231.308    9137.1533   0.99689872    111.29656    155.76713 
    3430       0.8365    296.80448   -14903.348    -15231.38    8757.0081   0.99689872    109.79923    155.66171 
    3440        0.839    297.57893   -14936.346   -15231.465    7878.3524   0.99689872    109.85386    155.55615 
    3450       0.8415     297.9029   -14913.767    -15231.54    8483.0964   0.99689872    108.50876    155.45625 
    3460        0.844    298.11915   -14885.593   -15231.617    9237.3119   0.99689872    110.96288    155.34637 
    3470       0.8465    296.78721   -14915.984   -15231.689    8427.9003   0.99689872    110.95188    155.23664 
    3480        0.849    295.50911   -14939.724   -15231.754    7795.8711   0.99689872    101.80878     155.1666 
    3490       0.8515     298.0777   -14906.637   -15231.829     8681.175   0.99689872    110.02272    155.06067 
    3500        0.854     298.8329   -14874.147    -15231.89    9550.1535   0.99689872    110.52487    154.95283 
    3510       0.8565    299.27862   -14919.492   -15231.953    8341.2978   0.99689872    110.31053    154.84593 
    3520        0.859    299.27576   -14962.649   -15232.015    7190.8716   0.99689872    111.30233    154.73524 
    3530       0.8615    299.63081   -14921.819   -15232.077     8282.494   0.99689872     96.15797    154.69264 
    3540        0.864    302.23664   -14892.099   -15232.145    9077.7027   0.99689872    109.99561    154.58706 
    3550       0.8665    300.46955   -14902.384   -15232.214    8804.9679   0.99689872    103.78062    154.50754 
    3560        0.869    298.20137   -14917.429    -15232.27     8404.859   0.99689872    111.07265    154.39785 
    3570       0.8715    299.45436    -14916.98   -15232.334    8418.5476   0.99689872    111.40108    154.28701 
    3580        0.874    300.49133   -14930.162   -15232.394     8068.219   0.99689872    111.32097     154.1766 
    3590       0.8765    302.61339   -14948.528   -15232.462    7579.7689   0.99689872    110.61029    154.06902 
    3600        0.879    302.80111   -14916.678    -15232.53    8431.8395   0.99689872     107.3523     153.9744 
    3610       0.8815     299.9661     -14858.7   -15232.597    9981.3815   0.99689872    103.25207    153.89707 
    3620        0.884    298.71219   -14872.964   -15232.671    9602.5832   0.99689872     94.90744    153.85928 
    3630       0.8865    296.68629   -14924.998   -15232.731    8215.1051   0.99689872    103.90192    153.77879 
    3640        0.889    298.77989   -14935.781   -15232.797    7928.9932   0.99689872    105.84695    153.69003 
    3650       0.8915    300.56272   -14908.327   -15232.865    8663.7123   0.99689872    110.56222    153.58267 
    3660        0.894    300.23228   -14905.207    -15232.93    8748.7463   0.99689872    111.80151     153.4708 
    3670       0.8965    299.24343   -14918.261   -15232.989    8401.8303   0.99689872    110.73342      153.363 
    3680        0.899    300.37672   -14910.297   -15233.055    8616.1984   0.99689872    111.44515    153.25267 
    3690       0.9015    301.80805   -14904.539   -15233.123    8771.7136   0.99689872    96.202914    153.20709 
    3700        0.904    298.42788   -14909.385   -15233.184    8643.9831   0.99689872    100.96142    153.13898 
    3710       0.9065    298.54277   -14925.014    -15233.25    8228.5113   0.99689872    110.53287    153.03197 
    3720        0.909    298.74846   -14894.355    -15233.31    9048.5743   0.99689872    111.22779    152.92252 
    3730       0.9115    299.50385   -14871.114    -15233.37    9670.6126   0.99689872    110.93197    152.81424 
    3740        0.914    301.25189   -14907.334   -15233.444    8705.6898   0.99689872    110.72373    152.70682 
    3750       0.9165    294.51876    -14913.29   -15233.488    8547.8746   0.99689872    111.91089    152.59523 
    3760        0.919     298.6471   -14920.336   -15233.559    8361.6569   0.99689872    111.13866    152.48651 
    3770       0.9215    300.98941   -14887.385   -15233.612    9242.6873   0.99689872    103.59771    152.40688 
    3780        0.924    304.28942   -14886.403   -15233.675     9270.613   0.99689872    103.40494    152.32796 
    3790       0.9265    300.35733   -14907.261   -15233.728    8715.1904   0.99689872    101.57585     152.2566 
    3800        0.929     298.7965   -14943.074   -15233.793    7760.8918   0.99689872    109.33945    152.15445 
    3810       0.9315    295.14307   -14923.375   -15233.848    8288.2355   0.99689872    108.79163    152.05438 
    3820        0.934    296.36178    -14884.58   -15233.907    9325.4792   0.99689872    109.98708       151.95 
    3830       0.9365    300.01999   -14865.003   -15233.968    9849.6968   0.99689872    110.84121    151.84265 
    3840        0.939    299.05583   -14879.323   -15234.017    9468.7622   0.99689872    111.10821    151.73446 
    3850       0.9415     297.9125   -14921.202   -15234.066    8352.0646   0.99689872    96.871731    151.68338 
    3860        0.944    296.85201   -14914.562   -15234.113     8530.588   0.99689872    108.91548    151.58298 
    3870       0.9465    298.90887   -14885.923   -15234.168    9296.5834   0.99689872    108.92074     151.4826 
    3880        0.949    299.79588   -14877.069    -15234.21    9534.0827   0.99689872    101.60593    151.41049 
    3890       0.9515    299.76314   -14891.022   -15234.255    9162.7706   0.99689872     110.8344    151.30337 
    3900        0.954    299.91713    -14908.24     -15234.3    8704.3421   0.99689872    111.75364    151.19319 
    3910       0.9565    299.84265   -14915.274    -15234.34    8517.6227   0.99689872    109.61973    151.09048 
    3920        0.959    304.50327   -14929.233   -15234.395    8146.4348   0.99689872    110.56598    150.98454 
    3930       0.9615     304.7463   -14931.826   -15234.441    8078.4645   0.99689872    111.33853    150.87604 
    3940        0.964    302.33554   -14935.697   -15234.495    7976.5645   0.99689872    110.27652    150.77127 
    3950       0.9665    298.52511   -14923.632   -15234.556    8300.2877   0.99689872      111.152    150.66359 
    3960        0.969     295.4801   -14885.199   -15234.602    9327.4961   0.99689872    110.58762     150.5579 
    3970       0.9715    298.54905   -14873.552   -15234.663    9640.0554   0.99689872    103.66699    150.47733 
    3980        0.974    298.28437   -14902.733   -15234.708    8862.2343   0.99689872    110.92985    150.37057 
    3990       0.9765    301.14936   -14956.041   -15234.759    7440.5329   0.99689872    110.69414    150.26469 
    4000        0.979    300.53034    -14927.71   -15234.804    8198.0598   0.99689872     103.0615    150.18637 
    4010       0.9815    299.89426   -14897.891   -15234.855    8995.4316   0.99689872    112.11262    150.07588 
    4020        0.984    299.26025   -14933.615   -15234.908    8043.1597   0.99689872    91.956561    150.04529 
    4030       0.9865    298.46564   -14965.341   -15234.953    7197.4514   0.99689872    111.58611    149.93647 
    4040        0.989    299.22141   -14933.757   -15235.004    8041.9544   0.99689872    111.71119    149.82735 
    4050       0.9915     299.0671   -14892.999   -15235.053    9131.3132   0.99689872    111.99201    149.71741 
    4060        0.994    297.38701   -14897.351   -15235.097    9016.3053   0.99689872    112.41356    149.60623 
    4070       0.9965    296.81582   -14907.054    -15235.14    8758.4194   0.99689872    112.30797     149.4955 
    4080        0.999     297.0017   -14907.192   -15235.177    8755.7154   0.99689872    112.79719    149.38333 
    4090       1.0015    298.74614   -14921.625   -15235.214    8371.4105   0.99689872    104.37294    149.29985 
    4100        1.004    296.87481    -14912.75   -15235.249    8609.2808   0.99689872    111.35417     149.1924 
    4110       1.0065    300.22683    -14896.26   -15235.299    9050.8364   0.99689872    111.97833    149.08305 
    4120        1.009    297.61406   -14860.705   -15235.317    10000.455   0.99689872    111.91749    148.97399 
    4130       1.0115    299.02775   -14892.386   -15235.352     9155.657   0.99689872    110.91277    148.86822 
    4140        1.014    300.34192   -14940.616   -15235.384    7868.9815   0.99689872    111.08089    148.76199 
    4150       1.0165    299.15848   -14933.362   -15235.415    8063.4698   0.99689872    108.63872    148.66377 
    4160        1.019    298.94517   -14919.019   -15235.449    8447.2538   0.99689872    108.62632    148.56562 
    4170       1.0215    298.84645   -14934.405   -15235.475    8037.2335   0.99689872    102.88321    148.48752 
    4180        1.024    300.37275   -14938.789   -15235.505    7921.0106   0.99689872    96.519263     148.4342 
    4190       1.0265    301.98757   -14896.778   -15235.539     9043.383   0.99689872    108.82312     148.3353 
    4200        1.029     300.6425   -14871.128   -15235.569    9728.9329   0.99689872    107.97685    148.23921 
    4210       1.0315    295.91473   -14906.406    -15235.59    8787.7325   0.99689872    109.21993    148.13908 
    4220        1.034     297.4834   -14960.339   -15235.628    7348.9582   0.99689872    110.11517    148.03614 
    4230       1.0365    296.68687   -14921.844   -15235.642    8376.9996   0.99689872    109.95397    147.93377 
    4240        1.039     303.1575   -14890.114   -15235.682    9225.1337   0.99689872     108.3517    147.83658 
    4250       1.0415    301.17685   -14889.226   -15235.695    9249.1781   0.99689872    109.38326     147.7361 
    4260        1.044      298.489   -14933.914   -15235.721    8056.9148   0.99689872    109.55507    147.63513 
    4270       1.0465    296.56882   -14954.731   -15235.747    7501.8832   0.99689872    101.82017    147.56039 
    4280        1.049    296.28712   -14929.942   -15235.765    8164.1094   0.99689872    109.05387    147.46101 
    4290       1.0515    299.57988   -14906.437    -15235.79    8792.2494   0.99689872    108.91805     147.3621 
    4300        1.054    300.42843   -14889.865   -15235.803    9234.9806   0.99689872     109.8409    147.26033 
    4310       1.0565    301.97219   -14906.615   -15235.821    8788.3459   0.99689872    108.60827    147.16246 
    4320        1.059    300.48718   -14936.002    -15235.84    8004.3467   0.99689872    108.78976    147.06406 
    4330       1.0615    300.35144   -14944.346   -15235.857    7782.0431   0.99689872    109.01339    146.96498 
    4340        1.064    302.44176   -14904.821   -15235.885    8837.9347   0.99689872    109.75001    146.86366 
    4350       1.0665     302.6726   -14873.344    -15235.91    9678.8865   0.99689872    95.959088    146.81069 
    4360        1.069    301.75793   -14912.065   -15235.931     8645.762   0.99689872    100.93171    146.73859 
    4370       1.0715    300.32476   -14947.415   -15235.961    7702.9073   0.99689872    109.46602    146.63805 
    4380        1.074    298.76051   -14909.826    -15235.99    8707.1045   0.99689872    109.14147    146.53855 
    4390       1.0765    300.50532   -14888.628   -15236.018    9273.7476   0.99689872    108.79263    146.44015 
    4400        1.079    300.06355   -14914.715   -15236.039    8577.9106   0.99689872    109.62787    146.33924 
    4410       1.0815    301.00747   -14934.155    -15236.07     8059.778   0.99689872    109.34792    146.23922 
    4420        1.084    303.38225   -14912.738   -15236.105    8632.4374   0.99689872    108.82045    146.14084 
    4430       1.0865    301.36813   -14879.032    -15236.13    9532.9339   0.99689872    108.70388    146.04284 
    4440        1.089    300.46671   -14913.664   -15236.168    8609.4076   0.99689872    109.04776    145.94383 
    4450       1.0915     297.3058   -14938.549   -15236.192    7945.7196   0.99689872    101.18191    145.87039 
    4460        1.094    299.25485   -14917.427   -15236.231    8510.6452   0.99689872    109.21106    145.77088 
    4470       1.0965    299.06138   -14877.029   -15236.261    9589.8862   0.99689872    109.05291    145.67188 
    4480        1.099    301.84836   -14895.335   -15236.296    9102.1435   0.99689872    108.91366    145.57333 
    4490       1.1015    300.30623   -14919.162   -15236.318    8466.6289   0.99689872    109.26634    145.47377 
    4500        1.104    299.16155    -14927.02   -15236.353    8257.8014   0.99689872    109.08735    145.37477 
    4510       1.1065    299.25706   -14926.803   -15236.388    8264.5196   0.99689872    91.902253    145.33612 
    4520        1.109    299.83349   -14919.625    -15236.42    8456.9931   0.99689872    108.87985    145.23762 
    4530       1.1115    300.10653   -14916.427    -15236.45    8543.1666   0.99689872    100.79638    145.16492 
    4540        1.114    296.77918   -14913.861   -15236.472    8612.2688   0.99689872     109.0539     145.0659 
    4550       1.1165     298.6233   -14941.323   -15236.508    7880.1138   0.99689872    108.06024    144.96984 
    4560        1.119    298.69613   -14933.847   -15236.527    8080.1883   0.99689872    107.94777    144.87414 
    4570       1.1215    301.84354   -14923.572    -15236.56    8355.3605   0.99689872    109.05892    144.77518 
    4580        1.124    301.13164   -14923.753   -15236.578    8351.0328   0.99689872    109.14968    144.67599 
    4590       1.1265    302.77348   -14942.579   -15236.618    7849.4996   0.99689872    108.03577    144.58009 
    4600        1.129    299.80164   -14914.202   -15236.634    8607.5094   0.99689872    108.89625    144.48169 
    4610       1.1315    302.91969   -14920.555   -15236.675    8438.9998   0.99689872      101.553    144.40602 
    4620        1.134    305.34125    -14968.35   -15236.713    7164.0949   0.99689872    109.70647     144.3053 
    4630       1.1365    303.28533   -14965.079   -15236.749    7252.3539   0.99689872    109.27821    144.20584 
    4640        1.139    302.86162   -14910.241   -15236.792    8717.4453   0.99689872    108.46123    144.10875 
    4650       1.1415    302.34375   -14876.351   -15236.833    9623.2579   0.99689872    109.58862    144.00848 
    4660        1.144    303.05463   -14916.861   -15236.891    8543.3662   0.99689872    109.47497    143.90856 
    4670       1.1465    300.29546   -14949.894    -15236.93    7662.5745   0.99689872    91.060064    143.87077 
    4680        1.149    300.13351   -14933.475   -15236.982    8102.2784   0.99689872    108.73374    143.77284 
    4690       1.1515    301.42552   -14901.288   -15237.038    8963.0363   0.99689872    87.305005    143.75038 
    4700        1.154    301.28426   -14900.461    -15237.09    8986.4796   0.99689872    105.54307    143.66156 
    4710       1.1565    302.04985   -14924.982    -15237.14    8333.2134   0.99689872    106.21411    143.57072 
    4720        1.159    301.46646    -14933.41   -15237.193    8109.6568   0.99689872    103.98548    143.48655 
    4730       1.1615      302.643   -14934.692   -15237.252     8077.004   0.99689872    107.53294    143.39185 
    4740        1.164    304.01485   -14909.478    -15237.32     8751.926   0.99689872    108.29145    143.29501 
    4750       1.1665    302.99367   -14875.402   -15237.383    9663.2665   0.99689872    105.43851     143.2064 
    4760        1.169    305.20886   -14912.075    -15237.45    8686.0717   0.99689872     109.1491     143.1072 
    4770       1.1715    304.89353   -14951.307   -15237.518    7640.5334   0.99689872    105.52669     143.0183 
    4780        1.174    304.34943   -14936.077   -15237.603    8049.3872   0.99689872    97.831462    142.95368 
    4790       1.1765    301.53499    -14891.48   -15237.684     9242.102   0.99689872    106.51432    142.86181 
    4800        1.179    298.70914   -14902.808    -15237.76    8941.7284   0.99689872    105.87778    142.77176 
    4810       1.1815     300.4128   -14949.595   -15237.851    7695.1567   0.99689872    107.99515    142.67571 
    4820        1.184    299.75928    -14933.91   -15237.923    8115.7995   0.99689872    106.86734    142.58283 
    4830       1.1865    303.79198   -14902.696   -15238.019    8951.6073   0.99689872     89.66582    142.54764 
    4840        1.189    302.69999   -14899.944   -15238.096    9027.1584   0.99689872    104.97056    142.46001 
    4850       1.1915    304.09451   -14949.239   -15238.186    7713.5846   0.99689872    105.41238    142.37107 
    4860        1.194    301.64674   -14934.295   -15238.274     8114.889   0.99689872    106.48998    142.27904 
    4870       1.1965    302.84464   -14893.646   -15238.379    9202.8342   0.99689872    98.272688    142.21197 
    4880        1.199    303.48562   -14901.544   -15238.471    8994.4454   0.99689872    106.31373    142.12036 
    4890       1.2015    301.69578   -14945.058   -15238.564    7835.3014   0.99689872    106.25921    142.02889 
    4900        1.204    302.30809   -14952.125   -15238.675    7649.6052   0.99689872    106.14109    141.93773 
    4910       1.2065    302.14455   -14907.285   -15238.778    8849.3692   0.99689872    106.15241    141.84654 
    4920        1.209    302.74945   -14901.432   -15238.882    9008.4179   0.99689872    106.12785     141.7554 
    4930       1.2115    304.31324   -14945.102   -15238.992    7845.5385   0.99689872    103.77822    141.67092 
    4940        1.214    304.36871   -14939.277   -15239.111    8004.2129   0.99689872    96.967956    141.60749 
    4950       1.2165    303.76377   -14908.604   -15239.223    8826.0644   0.99689872    100.14627    141.53372 
    4960        1.219     305.5443   -14941.907    -15239.35    7940.4075   0.99689872    98.909229    141.46372 
    4970       1.2215    302.08065   -14962.529   -15239.468    7393.0072   0.99689872    106.34803    141.37171 
    4980        1.224    304.14923   -14948.273   -15239.604    7777.2473   0.99689872    91.065837    141.32838 
    4990       1.2265    301.60954     -14901.3   -15239.729    9034.5389   0.99689872     107.9957    141.23181 
    5000        1.229    303.09194   -14918.058   -15239.869    8590.9134   0.99689872    95.578717    141.17218 
    5010       1.2315     298.9515   -14920.438    -15239.99    8530.6046   0.99689872    104.94088    141.08379 
    5020        1.234    298.88452   -14917.816   -15240.135    8604.4869   0.99689872    111.25167    140.97888 
    5030       1.2365    298.43645   -14916.463   -15240.255    8643.8025   0.99689872    111.10917    140.87438 
    5040        1.239    301.52541   -14923.678   -15240.395     8454.912   0.99689872    111.35214    140.76935 
    5050       1.2415    302.95225   -14916.898   -15240.528    8639.4943   0.99689872    112.26824    140.66215 
    5060        1.244    303.94571   -14916.672   -15240.668    8649.2437   0.99689872    107.11613    140.56797 
    5070       1.2465    297.14091    -14908.35   -15240.785    8874.5237   0.99689872    106.13961    140.47637 
    5080        1.249    299.70987    -14940.15   -15240.943    8029.8478   0.99689872    107.18615      140.382 
    5090       1.2515    295.09807    -14907.64   -15241.055    8900.6905   0.99689872    102.34219    140.30087 
    5100        1.254    300.87449   -14918.085   -15241.198    8625.6554   0.99689872    111.11119    140.19663 
    5110       1.2565     298.3349   -14910.759   -15241.319    8824.4785   0.99689872    111.37362    140.09181 
    5120        1.259    295.84957   -14911.899   -15241.451     8797.549   0.99689872    110.82821    139.98837 
    5130       1.2615    294.26259   -14917.035   -15241.566    8663.5428   0.99689872    105.89652    139.89743 
    5140        1.264    295.03393   -14933.363   -15241.678    8230.6412   0.99689872    91.632452    139.84993 
    5150       1.2665    299.52459   -14949.012   -15241.805     7816.272   0.99689872    107.58251    139.75449 
    5160        1.269    297.56123   -14908.978   -15241.901    8887.5365   0.99689872    106.41253    139.66206 
    5170       1.2715    301.81688   -14896.737   -15242.026    9217.6762   0.99689872    94.882319    139.60311 
    5180        1.274    300.64505   -14906.112   -15242.128    8970.1243   0.99689872    107.01024    139.50905 
    5190       1.2765    299.52155   -14942.966    -15242.23    7989.0198   0.99689872    103.38629    139.42454 
    5200        1.279    300.55232   -14952.627   -15242.348    7734.2385   0.99689872     103.6392     139.3393 
    5210       1.2815    300.48263   -14936.385   -15242.457    8170.7505   0.99689872    110.13072    139.23752 
    5220        1.284    300.15106   -14939.106   -15242.566    8101.0172   0.99689872    109.39651    139.13754 
    5230       1.2865    300.60645   -14944.482   -15242.683    7960.6337   0.99689872    111.42154    139.03279 
    5240        1.289    302.64837   -14936.568   -15242.797      8174.95   0.99689872    111.01171    138.92906 
    5250       1.2915    302.93611   -14942.284   -15242.907    8025.3097   0.99689872    107.91728     138.8328 
    5260        1.294    303.21473   -14975.891   -15243.022    7131.2112   0.99689872    96.824687    138.76696 
    5270       1.2965     304.2929   -14967.804   -15243.152    7350.5561   0.99689872     107.3221    138.67212 
    5280        1.299    300.80962   -14904.753   -15243.273    9036.9648   0.99689872    109.96437     138.5709 
    5290       1.3015    299.51361   -14913.148   -15243.394    8816.0999   0.99689872    110.33776    138.46885 
    5300        1.304    297.37771   -14965.043    -15243.51    7433.8252   0.99689872    99.819738    138.39391 
    5310       1.3065    299.80152   -14974.492   -15243.638    7184.9787   0.99689872    95.639019    138.33125 
    5320        1.309    302.82393   -14921.132   -15243.765    8612.8448   0.99689872    104.47374     138.2435 
    5330       1.3115    301.97626   -14898.931    -15243.88    9208.6006   0.99689872    94.150658    138.18524 
    5340        1.314    302.69804    -14954.78   -15244.005    7721.0339   0.99689872     104.9618     138.0961 
    5350       1.3165    302.11496   -14977.231   -15244.134    7125.1225   0.99689872     101.0321    138.01731 
    5360        1.319    302.81657   -14953.039   -15244.267    7774.4934   0.99689872    104.83849    137.92842 
    5370       1.3215    301.99829    -14935.17   -15244.402    8255.1133   0.99689872    108.61106    137.83028 
    5380        1.324    299.79017   -14946.377   -15244.536    7959.5165   0.99689872    103.42892    137.74497 
    5390       1.3265    298.09087   -14937.455   -15244.665    8201.1367   0.99689872    106.67282    137.65147 
    5400        1.329    297.47598    -14926.14   -15244.788     8506.478   0.99689872    102.30596    137.56903 
    5410       1.3315    300.82541   -14956.831   -15244.926      7690.84   0.99689872    99.165973    137.49505 
    5420        1.334    299.74748   -14949.663   -15245.045    7885.3841   0.99689872    108.74111    137.39658 
    5430       1.3365    303.09346   -14915.427   -15245.187    8803.1143   0.99689872    109.92269    137.29542 
    5440        1.339    299.93549   -14892.876   -15245.308    9408.3583   0.99689872    110.57581    137.19282 
    5450       1.3415    300.14656   -14952.735   -15245.438    7813.8652   0.99689872    104.99286    137.10339 
    5460        1.344    297.33516   -14970.319   -15245.562     7347.757   0.99689872    87.007404    137.06749 
    5470       1.3465    297.45586    -14922.57    -15245.69    8625.8716   0.99689872    108.52004    136.96948 
    5480        1.349    299.61986   -14880.918   -15245.821    9741.2775   0.99689872    53.390747    137.12901 
    5490       1.3515    297.99754   -14896.939   -15245.933    9316.5885   0.99689872    102.63265    137.04466 
    5500        1.354    298.83477   -14950.184   -15246.057    7898.4873   0.99689872    105.32991    136.95354 
    5510       1.3565    297.70029   -14950.887   -15246.176    7882.9065   0.99689872    108.88664    136.85408 
    5520        1.359     300.4726   -14936.852   -15246.296    8260.7562   0.99689872    109.03142    136.75432 
    5530       1.3615    301.29465   -14919.458   -15246.411    8728.1963   0.99689872    107.90638    136.65714 
    5540        1.364    300.56738   -14930.508   -15246.534    8436.4692   0.99689872    103.81898    136.56971 
    5550       1.3665    301.11622   -14964.839   -15246.654    7523.1892   0.99689872    105.69666    136.47769 
    5560        1.369    299.98341   -14960.028   -15246.772    7654.7978   0.99689872    109.37553    136.37723 
    5570       1.3715    299.68152   -14935.113   -15246.892    8323.1161   0.99689872    101.94034    136.29444 
    5580        1.374    301.36139   -14933.236   -15247.014    8376.4608   0.99689872    109.87503     136.1929 
    5590       1.3765    301.38842   -14922.929   -15247.134    8654.8341   0.99689872    109.84505    136.09146 
    5600        1.379    301.00032   -14919.752   -15247.258    8742.9442   0.99689872    100.08152    136.01338 
    5610       1.3815    298.13944   -14944.006   -15247.373    8098.5449   0.99689872    87.602563    135.97251 
    5620        1.384    298.21005   -14967.044   -15247.496    7486.8308   0.99689872    109.41165    135.87192 
    5630       1.3865    297.28259   -14915.296   -15247.612    8871.3362   0.99689872    108.73736    135.77284 
    5640        1.389    300.14278   -14888.096   -15247.729    9600.5918   0.99689872    109.53959    135.67203 
    5650       1.3915    302.65554   -14943.653   -15247.851    8120.7259   0.99689872    103.47663    135.58513 
    5660        1.394    298.63323   -14982.995   -15247.956    7073.2673   0.99689872    104.80927    135.49502 
    5670       1.3965     301.0296    -14968.46   -15248.086    7464.7576   0.99689872    102.02918    135.41159 
    5680        1.399    298.69484   -14897.159   -15248.196     9371.101   0.99689872    107.74356    135.31473 
    5690       1.4015    298.84446   -14903.854   -15248.319    9195.6656   0.99689872    109.57267    135.21391 
    5700        1.404    297.39428   -14955.858   -15248.427    7810.2759   0.99689872    105.06272    135.12316 
    5710       1.4065    298.28961   -14947.214    -15248.54     8044.057   0.99689872    102.16639    135.03929 
    5720        1.409    299.31835   -14908.076   -15248.647     9091.723   0.99689872    89.630847    134.99025 
    5730       1.4115    301.82252   -14953.443   -15248.762    7883.6865   0.99689872    97.623203    134.91777 
    5740        1.414    299.98201   -15002.472   -15248.863    6577.5275   0.99689872     106.7024    134.82308 
    5750       1.4165    301.36846   -14969.772   -15248.983    7453.6625   0.99689872      108.668    134.72411 
    5760        1.419    300.97501   -14890.221   -15249.094    9580.3113   0.99689872     107.6944    134.62726 
    5770       1.4215    301.94217   -14911.706   -15249.212    9009.9021   0.99689872    94.997182    134.56166 
    5780        1.424    298.64931    -14976.82   -15249.313    7274.3375   0.99689872    106.03609    134.46841 
    5790       1.4265     300.2217   -14989.894   -15249.438    6928.6537   0.99689872    104.80363    134.37793 
    5800        1.429    300.16189   -14933.244   -15249.545    8443.8165   0.99689872    105.15265    134.28665 
    5810       1.4315      304.642    -14937.75   -15249.667    8326.7907   0.99689872     101.0849    134.20489 
    5820        1.434    303.57942   -14974.877   -15249.774    7338.5195   0.99689872    104.34603    134.11538 
    5830       1.4365    303.09974    -14985.85   -15249.898    7048.9109   0.99689872    101.59701    134.03228 
    5840        1.439     301.2156    -14946.14   -15250.019    8112.2152   0.99689872    102.87905    133.94609 
    5850       1.4415    302.35772   -14932.986   -15250.157    8467.0554   0.99689872    103.41304    133.85863 
    5860        1.444    302.38318   -14944.062   -15250.282    8174.7128   0.99689872    103.36738    133.77124 
    5870       1.4465    302.05509   -14952.478   -15250.407    7953.3815   0.99689872    105.28927    133.67948 
    5880        1.449    299.95888   -14948.495   -15250.536    8063.1276   0.99689872    109.84101    133.57806 
    5890       1.4515    301.68549   -14963.871   -15250.675    7656.3765   0.99689872    110.93257    133.47449 
    5900        1.454     300.1716    -14964.44   -15250.801    7644.5372   0.99689872    110.49233    133.37184 
    5910       1.4565    300.03761   -14956.113    -15250.94    7870.5696   0.99689872    97.505711    133.29856 
    5920        1.459    298.01576   -14936.678   -15251.058    8392.5218   0.99689872    103.84074    133.20999 
    5930       1.4615    301.25844   -14936.629   -15251.198     8397.596   0.99689872    94.677827    133.14397 
    5940        1.464    303.37221   -14937.644   -15251.328    8373.9518   0.99689872     109.2108    133.04385 
    5950       1.4665    307.53682   -14962.296    -15251.47    7719.6541   0.99689872    110.25977    132.94167 
    5960        1.469    302.68346   -14956.574   -15251.594    7875.7108   0.99689872    110.74068    132.83858 
    5970       1.4715    305.55495    -14958.34   -15251.759    7832.9761   0.99689872     104.6414    132.74816 
    5980        1.474    299.24885   -14909.993   -15251.893    9127.2162   0.99689872     103.8436    132.65947 
    5990       1.4765    301.90456   -14934.866   -15252.054    8467.5029   0.99689872    101.00136    132.57723 
    6000        1.479    298.66684   -14961.191   -15252.187    7768.2753   0.99689872    102.32827    132.49187 
    6010       1.4815    300.60095   -14979.359   -15252.337    7287.3065   0.99689872    111.30067    132.38776 
    6020        1.484     301.8294   -14960.459   -15252.483    7795.7353   0.99689872    111.30735    132.28369 
    6030       1.4865    302.42079   -14955.306   -15252.631    7937.2517   0.99689872    110.40804    132.18139 
    6040        1.489    303.86357   -14993.152   -15252.782    6930.9577   0.99689872    106.04819    132.08792 
    6050       1.4915    302.78362   -14989.157   -15252.942    7041.8982   0.99689872    108.18781    131.99005 
    6060        1.494    300.29791   -14941.517   -15253.095    8317.7444   0.99689872    111.98751    131.88484 
    6070       1.4965    299.85386   -14939.971   -15253.259    8363.4059   0.99689872     112.1275    131.77943 
    6080        1.499    294.33628   -14976.922   -15253.397    7380.6359   0.99689872    100.28491    131.69866 
    6090       1.5015    296.87763    -15010.68   -15253.548    6483.4834   0.99689872    91.987529    131.63879 
    6100        1.504    294.51236   -14938.935   -15253.679    8402.2541   0.99689872    106.61572    131.54409 
    6110       1.5065    299.33479   -14915.813   -15253.836     9023.709   0.99689872    106.30065    131.45004 
    6120        1.509      299.595   -14953.093   -15253.962    8031.8355   0.99689872     107.8749     131.3528 
    6130       1.5115    299.83854   -14989.793   -15254.094    7055.6711   0.99689872     109.5947    131.25223 
    6140        1.514    299.77371   -14966.591   -15254.228    7678.6293   0.99689872    110.44064    131.15008 
    6150       1.5165    302.06286   -14942.794   -15254.378    8317.9005   0.99689872    104.87901    131.05899 
    6160        1.519    296.14151   -14937.116   -15254.491    8472.4862   0.99689872    98.670107    130.98164 
    6170       1.5215    299.73329   -14992.408   -15254.636    7000.3082   0.99689872    103.18661    130.89407 
    6180        1.524    296.54611   -14981.614   -15254.759    7291.7489   0.99689872    104.54275    130.80361 
    6190       1.5265    298.75079   -14970.512   -15254.891    7591.6417   0.99689872    103.86111    130.71455 
    6200        1.529    299.08594   -14953.689   -15255.013    8043.9988   0.99689872    106.38316    130.62029 
    6210       1.5315    300.26587   -14948.438   -15255.137    8187.5019   0.99689872    97.554699    130.54529 
    6220        1.534    301.50451   -14952.533   -15255.271    8081.7635   0.99689872    107.81591    130.44817 
    6230       1.5365    297.97031    -14943.95   -15255.391    8314.0737   0.99689872    108.69799    130.34936 
    6240        1.539    297.25786    -14949.65   -15255.514    8165.1972   0.99689872    110.22361    130.24771 
    6250       1.5415    296.49915   -14943.729   -15255.632    8326.4289   0.99689872    96.041286    130.17615 
    6260        1.544    300.22917    -14947.65   -15255.757    8225.0788   0.99689872    102.88233    130.08899 
    6270       1.5465    298.42651   -14931.086   -15255.864    8670.1077   0.99689872    111.36655    129.98526 
    6280        1.549    300.71272   -14951.796   -15255.985    8120.5038   0.99689872     111.8811    129.88065 
    6290       1.5515    300.66419   -14969.968   -15256.097    7638.3774   0.99689872    111.67794    129.77646 
    6300        1.554     300.1368    -14968.24   -15256.208    7687.4636   0.99689872    110.28161    129.67483 
    6310       1.5565    303.11276   -14958.468   -15256.332    7951.6196   0.99689872     110.0927    129.57358 
    6320        1.559    300.34508   -14929.397   -15256.444    8730.6884   0.99689872     110.3137    129.47196 
    6330       1.5615    301.76006   -14950.844   -15256.566    8161.3955   0.99689872    110.80788    129.36948 
    6340        1.564    300.17712   -14957.522   -15256.686    7986.3374   0.99689872    111.39393      129.266 
    6350       1.5665    298.61266   -14932.635   -15256.805    8653.8835   0.99689872    102.85304     129.1789 
    6360        1.569    299.79977   -14932.111   -15256.927    8671.1144   0.99689872    111.49088     129.0753 
    6370       1.5715    298.77948   -14968.956    -15257.04    7690.5448   0.99689872    112.04179    128.97078 
    6380        1.574    299.57881   -14992.483   -15257.156    7065.5646   0.99689872    111.60853    128.86707 
    6390       1.5765    302.42802   -14953.874    -15257.28     8099.569   0.99689872    110.97375    128.76451 
    6400        1.579    302.77866   -14913.389   -15257.396    9183.4504   0.99689872    111.87695    128.66041 
    6410       1.5815    300.42713   -14959.285    -15257.52    7961.5425   0.99689872    93.965209    128.59319 
    6420        1.584    294.18237   -15018.488   -15257.628    6383.9865   0.99689872    111.01794     128.4906 
    6430       1.5865    296.27285   -15011.535   -15257.752    6572.9088   0.99689872    102.68394    128.40377 
    6440        1.589    295.86156   -14919.155   -15257.852    9041.6934   0.99689872    110.91458    128.30139 
    6450       1.5915    298.54183   -14885.854   -15257.968    9933.7605   0.99689872    111.22063    128.19853 
    6460        1.594     296.2138   -14926.979   -15258.067    8838.5918   0.99689872    111.86735    128.09459 
    6470       1.5965    295.30591   -14979.562   -15258.168    7437.5409   0.99689872    111.04743    127.99211 
    6480        1.599    295.61516   -14970.817   -15258.261    7673.4674   0.99689872    110.33745    127.89089 
    6490       1.6015    296.17123   -14932.686   -15258.353    8693.8593   0.99689872    111.06563    127.78845 
    6500        1.604     296.7332    -14931.67   -15258.435     8723.176   0.99689872    109.46483    127.68884 
    6510       1.6065    299.39465   -14954.405   -15258.532    8118.8403   0.99689872    111.46843    127.58578 
    6520        1.609    295.80277   -14935.331   -15258.603    8629.9294   0.99689872    103.21066    127.49789 
    6530       1.6115    296.43374   -14951.663    -15258.69    8196.2428   0.99689872    111.45029    127.39492 
    6540        1.614    296.14193   -14965.999   -15258.763    7815.4758   0.99689872    110.58995    127.29344 
    6550       1.6165    297.15396    -14955.01   -15258.835    8110.7882   0.99689872    110.04325    127.19294 
    6560        1.619    298.73045   -14946.252   -15258.913     8346.657   0.99689872    110.83059    127.09113 
    6570       1.6215    294.81992   -14958.242   -15258.968    8028.0343   0.99689872    111.52652    126.98817 
    6580        1.624    295.50608       -14995   -15259.039    7048.6795   0.99689872    95.855845    126.91573 
    6590       1.6265    291.51627   -14948.913   -15259.087    8280.2545   0.99689872    110.45428     126.8146 
    6600        1.629    295.53472   -14915.557   -15259.149    9172.3666   0.99689872     102.6167     126.7278 
    6610       1.6315    299.10779   -14922.245   -15259.196    8995.0914   0.99689872    111.18603    126.62547 
    6620        1.634    301.10777   -14949.801   -15259.244     8260.719   0.99689872    110.96166    126.52355 
    6630       1.6365    300.22191    -14958.69   -15259.288    8024.6358   0.99689872      109.914    126.42343 
    6640        1.639    299.16168   -14962.936   -15259.341    7912.6871   0.99689872    111.04921    126.32143 
    6650       1.6415    300.00549   -14978.192   -15259.384    7506.5701   0.99689872    110.19911    126.22088 
    6660        1.644    300.64455   -14959.939   -15259.429    7995.0486   0.99689872    110.87362    126.11924 
    6670       1.6465    302.51076   -14921.433   -15259.488    9024.5445   0.99689872     110.6553      126.018 
    6680        1.649    302.87205   -14933.972   -15259.537    8691.1158   0.99689872    110.98441    125.91625 
    6690       1.6515    300.94045   -14993.782   -15259.589    7095.8674   0.99689872    102.12886    125.83037 
    6700        1.654    296.37978   -14998.893   -15259.633    6960.5905   0.99689872    111.50582     125.7278 
    6710       1.6565    298.67493   -14965.791   -15259.696    7845.9454   0.99689872    102.07458    125.64199 
    6720        1.659    299.47109   -14942.702   -15259.749    8463.7439   0.99689872     99.65989    125.56093 
    6730       1.6615    298.96222   -14969.222   -15259.797    7757.0603   0.99689872    110.36249    125.46026 
    6740        1.664    296.69021   -14974.242   -15259.833    7624.0089   0.99689872    89.028381    125.40314 
    6750       1.6665    297.98913   -14933.856    -15259.89    8703.6462   0.99689872     104.3563    125.31286 
    6760        1.669    298.89219   -14920.953   -15259.934    9049.2621   0.99689872    107.48532      125.217 
[...]
   51950      12.9665     310.4772   -15244.062   -15239.873   -91.148795   0.81237785    124.80269    1550.1293 
   51960       12.969    310.36011   -15206.272   -15239.889    731.51874   0.81261053    123.81286    1550.0211 
   51970      12.9715    313.61634   -15240.987   -15239.911   -23.404773    0.8125859    121.95369    1549.9324 
   51980       12.974    315.03659   -15261.298   -15239.939   -464.74951   0.81255913    120.88355    1549.8553 
   51990      12.9765    314.69955   -15222.224   -15239.972    386.24923   0.81268332    123.78717    1549.7475 
   52000       12.979    313.10089   -15202.794   -15240.013    809.94165   0.81265751    116.75063    1549.7165 
   52010      12.9815    313.17288   -15247.745   -15240.071   -166.93405   0.81233512    127.40237    1549.5726 
   52020       12.984    312.45512   -15269.566     -15240.1   -640.75163   0.81205304    129.27184    1549.4108 
   52030      12.9865     315.1959   -15233.611   -15240.158     142.3786   0.81201397    126.45181    1549.2764 
   52040       12.989    314.32534   -15200.391   -15240.224    866.04136    0.8119155    127.74348    1549.1295 
   52050      12.9915    313.25108   -15232.352   -15240.299    172.68902   0.81148323    127.69811    1548.9831 
   52060       12.994    309.32541   -15246.083   -15240.349   -124.52073   0.81094511    127.18086    1548.8419 
   52070      12.9965     316.5913   -15254.785   -15240.436   -311.42013   0.81047156    128.31209    1548.6899 
   52080       12.999    314.59019    -15228.74   -15240.494    254.97712   0.81007916    111.73891    1548.7191 
   52090      13.0015    315.31999   -15261.722   -15240.579   -458.40268   0.80963617    117.98425     1548.674 
   52100       13.004    312.53452   -15268.498   -15240.652   -603.53105   0.80937109    122.40293     1548.581 
   52110      13.0065    311.76928   -15235.457   -15240.742    114.54386   0.80933978    119.15583    1548.5228 
   52120       13.009    309.29299   -15212.953   -15240.829    604.08989   0.80925885    120.61767    1548.4486 
   52130      13.0115    311.56084   -15269.154    -15240.93   -611.42172   0.80898908    103.92695    1548.5822 
   52140       13.014    310.91935   -15276.294   -15241.019   -764.15342   0.80894191    126.37904    1548.4489 
   52150      13.0165    313.10258    -15232.59   -15241.122    184.89127   0.80919318    127.53832    1548.3045 
   52160       13.019    313.38963   -15206.419   -15241.213    754.12824   0.80937252    119.12454    1548.2464 
   52170      13.0215    314.17837   -15250.252   -15241.322   -193.52338    0.8092805    123.52923    1548.1417 
   52180       13.024     314.7849   -15277.811    -15241.43   -788.39455   0.80925801    124.35468    1548.0287 
   52190      13.0265    313.70159   -15230.739   -15241.549     234.3439   0.80952263    127.92372     1547.881 
   52200       13.029    311.64925   -15201.921   -15241.668    861.82105   0.80970614    131.81702    1547.6975 
   52210      13.0315    308.14554   -15231.162   -15241.782    230.22326   0.80954895    130.86157    1547.5228 
   52220       13.034    311.04785     -15268.2   -15241.908   -569.79797   0.80929728    113.71794    1547.5266 
   52230      13.0365    311.95474   -15250.894    -15242.02   -192.30167   0.80924169    134.08116    1547.3237 
   52240       13.039    317.04505   -15255.602   -15242.161   -291.28029   0.80930464    122.67082    1547.2282 
   52250      13.0415    312.31385     -15237.1   -15242.276    112.19578   0.80946486     133.5655    1547.0301 
   52260       13.044    313.17466   -15246.159   -15242.422   -81.027025   0.80961638    129.95822    1546.8642 
   52270      13.0465    307.32841   -15226.163   -15242.544    355.20881   0.80977321     130.5696    1546.6929 
   52280       13.049    310.71296   -15258.545   -15242.694   -343.76103   0.80984091    130.80971    1546.5197 
   52290      13.0515    308.17345   -15250.018   -15242.818   -156.17678   0.81001556    120.31039    1546.4492 
   52300       13.054    310.46375   -15231.193   -15242.961     255.3398   0.81027145    125.90442    1546.3219 
   52310      13.0565    309.29655    -15214.36   -15243.084    623.37264   0.81041244    130.09208    1546.1554 
   52320       13.059    308.97925   -15222.194   -15243.218    456.17217   0.81029287    106.80465    1546.2463 
   52330      13.0615    309.51452    -15233.52   -15243.355    213.31777   0.80996786    130.83711    1546.0732 
   52340       13.064    308.27295   -15221.741   -15243.489     471.4473   0.80950612     129.3574    1545.9136 
   52350      13.0665    308.12109   -15225.836   -15243.638    385.58103   0.80882944     129.9113    1545.7492 
   52360       13.069    302.92043   -15227.477   -15243.775     352.6124   0.80793136    133.67504    1545.5517 
   52370      13.0715    302.57953   -15249.607   -15243.897   -123.36834    0.8068503    118.88354    1545.4966 
   52380       13.074    305.59804   -15240.769       -15244     69.70838    0.8057407     126.3701    1545.3654 
   52390      13.0765    312.15552   -15229.571    -15244.13    313.65516   0.80453825    123.12974    1545.2661 
   52400       13.079    309.40465   -15229.022   -15244.252    327.54238    0.8031259    127.86087     1545.121 
   52410      13.0815     308.6887   -15294.457   -15244.338   -1075.8108   0.80156738    126.80258     1544.986 
   52420       13.084    307.85019   -15303.983    -15244.34   -1278.3224   0.80037059    125.08755    1544.8675 
   52430      13.0865    308.21154   -15241.151   -15244.407    69.738161   0.79964225    120.65887    1544.7936 
   52440       13.089    307.70517   -15246.973   -15244.511   -52.677242   0.79891678    126.28871    1544.6636 
   52450      13.0915    308.18309   -15336.549   -15244.577   -1966.0224   0.79826335    129.19752    1544.5067 
   52460       13.094    302.79163   -15314.437   -15244.659   -1491.8101   0.79836939    133.84042    1544.3092 
   52470      13.0965    308.53167   -15245.594   -15244.789   -17.241797   0.79914622    132.83082    1544.1205 
   52480       13.099    306.99394   -15215.514   -15244.832    628.07676   0.79999738    123.92448    1544.0138 
   52490      13.1015    308.10961   -15293.739   -15244.913   -1046.9285   0.80071326    128.97826    1543.8594 
   52500       13.104    308.29615   -15321.046   -15245.101   -1630.8507   0.80190637    123.81225     1543.754 
   52510      13.1065    307.62827   -15249.611   -15245.256   -93.746053   0.80382745     111.2223    1543.7866 
   52520       13.109    307.64401   -15218.698   -15245.283    573.74909    0.8059303    128.85657    1543.6334 
   52530      13.1115     308.3138   -15257.577   -15245.322    -265.1351   0.80792054    131.69563    1543.4552 
   52540       13.114    308.34424   -15246.699   -15245.422   -27.704165   0.81003007    131.56894    1543.2782 
   52550      13.1165    312.46039   -15212.413   -15245.441    718.31025   0.81216351    126.20337      1543.15 
   52560       13.119    309.11191   -15201.761   -15245.401    951.23512   0.81398438     113.5799    1543.1543 
   52570      13.1215    309.91037   -15253.916   -15245.438   -185.12215   0.81543338    126.05359    1543.0276 
   52580       13.124    307.34603   -15231.943   -15245.496    296.45743   0.81685344    129.52311     1542.869 
   52590      13.1265    309.33263   -15181.484   -15245.498    1402.3853   0.81808635     128.9318    1542.7159 
   52600       13.129    309.63582   -15188.116   -15245.502    1258.1318   0.81870738    128.10667    1542.5704 
   52610      13.1315    309.34199   -15228.881    -15245.55     365.4882   0.81877905    127.33415    1542.4321 
   52620       13.134    307.22839   -15209.509   -15245.597    791.09332   0.81862444    118.33439    1542.3832 
   52630      13.1365    308.24933   -15192.407   -15245.683    1167.2197    0.8181382    124.85363    1542.2683 
   52640       13.139    309.16952   -15225.195   -15245.776    450.38372   0.81719546    119.29146    1542.2092 
   52650      13.1415    311.45815   -15258.165   -15245.829   -269.58687   0.81608858    127.49068    1542.0697 
   52660       13.144    309.08924   -15240.539   -15245.859     116.1091   0.81509319    128.53529    1541.9207 
   52670      13.1465    312.71634   -15257.452   -15245.928   -251.23622   0.81413851    127.50969    1541.7812 
   52680       13.149    305.04762   -15251.112   -15245.954   -112.34171   0.81329766    114.26085    1541.7771 
   52690      13.1515    303.65666   -15256.849    -15245.99    -236.2664   0.81255775    120.15539    1541.7091 
   52700       13.154    303.46557   -15231.709   -15246.023    311.21041   0.81192843    105.85771    1541.8079 
   52710      13.1565    307.39673   -15231.576   -15246.079    315.04933   0.81121836    117.37758    1541.7689 
   52720       13.159    309.09447   -15266.757   -15246.101   -448.28404   0.81043305    126.53083    1541.6384 
   52730      13.1615    308.66305    -15291.76   -15246.108   -990.08418   0.80988158    127.95532     1541.495 
   52740       13.164    305.93257    -15261.59   -15246.123    -335.3697   0.80973414    127.57144    1541.3551 
   52750      13.1665    303.66557   -15250.503   -15246.136   -94.708238   0.80975872    120.29304    1541.2855 
   52760       13.169    305.80445    -15271.23   -15246.166   -543.56968   0.80986846    100.43632    1541.4588 
   52770      13.1715    305.07491   -15254.001   -15246.182   -169.64731   0.81017019    119.70488    1541.3949 
   52780       13.174    305.11653     -15253.5   -15246.188   -158.68744    0.8105434    124.61711    1541.2825 
   52790      13.1765     304.3897   -15282.231     -15246.2   -782.49828   0.81099821    126.67495    1541.1509 
   52800       13.179    303.69118    -15283.75   -15246.237   -815.44818   0.81175632    117.83555    1541.1066 
   52810      13.1815    305.81744   -15250.772   -15246.259   -98.219301   0.81280987    128.35452    1540.9599 
   52820       13.184    308.10503   -15221.977    -15246.24    528.77638   0.81385814    129.10089    1540.8066 
   52830      13.1865    308.47132   -15229.643   -15246.197    361.11475   0.81464796    118.65052    1540.7538 
   52840       13.189    308.92593   -15265.862   -15246.186   -429.55327   0.81527054    118.21318    1540.7054 
   52850      13.1915    306.84952   -15245.539   -15246.186    14.136601    0.8160017    109.80843     1540.752 
   52860       13.194    306.62587   -15221.956   -15246.157    529.25713   0.81668603    100.97847     1540.915 
   52870      13.1965    309.94781   -15238.503   -15246.139    167.10916   0.81714386     101.3808    1541.0719 
   52880       13.199    307.52721   -15240.879   -15246.107    114.45802    0.8174817    119.43703    1541.0102 
   52890      13.2015    308.76379    -15247.83   -15246.092   -38.068317   0.81776439    124.38777    1540.8998 
   52900       13.204    307.03464   -15231.796   -15246.061     312.4756    0.8180264    118.18945    1540.8509 
   52910      13.2065    312.75471   -15235.937   -15246.054    221.66038   0.81816903    118.85722    1540.7951 
   52920       13.209    310.23549   -15218.116   -15246.022     611.4126   0.81817572    125.60687    1540.6734 
   52930      13.2115    312.56012   -15249.898   -15246.021   -84.929938    0.8179741    115.73429    1540.6506 
   52940       13.214    308.69173   -15241.897    -15245.99    89.632978   0.81777247    109.15625    1540.7036 
   52950      13.2165    310.87267    -15223.03   -15245.997    502.80163   0.81754654     113.1821    1540.7089 
   52960       13.219    308.42666   -15202.614   -15245.996    949.21181   0.81709125    119.29179    1540.6483 
   52970      13.2215    309.74075   -15237.361   -15246.016      189.196   0.81629121    126.61332    1540.5173 
   52980       13.224    309.21723   -15252.745       -15246   -147.27886    0.8154175    125.62148    1540.3954 
   52990      13.2265    307.94421   -15220.986   -15245.989    545.41408   0.81459849    111.93677    1540.4147 
   53000       13.229    308.57348   -15223.233   -15246.013    496.31676   0.81360201    118.36414    1540.3635 
   53010      13.2315    309.86166   -15268.149   -15245.999   -481.90587   0.81246774    131.01842    1540.1942 
   53020       13.234    309.67777   -15276.806   -15245.954   -670.49007   0.81156032    131.93105    1540.0174 
   53030      13.2365    309.77425   -15252.919   -15245.915   -152.09425   0.81095048    131.47453    1539.8445 
   53040       13.239    312.23546   -15261.189   -15245.902   -331.77485   0.81047488    128.69614    1539.6955 
   53050      13.2415    310.55647   -15249.533   -15245.884   -79.171814   0.81014498    131.47164     1539.523 
   53060       13.244    310.88453   -15242.909   -15245.874    64.316048   0.80986283    103.54523    1539.6462 
   53070      13.2465     313.1708   -15276.664    -15245.87   -667.60902   0.80961006    113.57177    1539.6464 
   53080       13.249    309.05027   -15279.056   -15245.847   -720.00326   0.80962228    125.31956    1539.5276 
   53090      13.2515    312.75704   -15259.507    -15245.87   -295.77017   0.80995071    129.68304    1539.3703 
   53100       13.254     310.1714   -15202.282   -15245.844    945.31036   0.81034949    130.27224    1539.2081 
   53110      13.2565    311.75321   -15230.461   -15245.849    333.94297   0.81041127    129.74361    1539.0506 
   53120       13.259    308.23209   -15259.263   -15245.841   -291.23448    0.8103151    130.73272    1538.8847 
   53130      13.2615    308.92643   -15258.349   -15245.841   -271.41026   0.81032557    130.96195    1538.7172 
   53140       13.264     310.6652   -15232.364   -15245.846    292.58975   0.81043316    115.73588    1538.6935 
   53150      13.2665    308.67111   -15238.419   -15245.838    161.00596   0.81043115    121.44078    1538.6118 
   53160       13.269    307.87669   -15269.851   -15245.831   -521.26318   0.81037821     118.9163     1538.555 
   53170      13.2715    307.01888   -15255.558   -15245.828   -211.18443   0.81051789    116.27631    1538.5254 
   53180       13.274    307.42274   -15227.914   -15245.822    388.78736   0.81074088    117.13523    1538.4868 
   53190      13.2765    308.98273   -15238.248   -15245.812    164.22865   0.81082156    112.78529     1538.495 
   53200       13.279    308.85732   -15244.444   -15245.799    29.409231    0.8108221    121.49598    1538.4125 
   53210      13.2815    312.26391   -15254.769   -15245.791   -194.93923   0.81081315    113.47794    1538.4128 
   53220       13.284    312.00233   -15250.211   -15245.787   -96.057977   0.81087837     121.9912    1538.3255 
   53230      13.2865    308.55073   -15241.283    -15245.77    97.450153   0.81097227    128.21292    1538.1817 
   53240       13.289     308.8835   -15246.368   -15245.765   -13.101531   0.81103736    105.70716    1538.2738 
   53250      13.2915    306.66037   -15236.559   -15245.754    199.71595   0.81109633    131.80179    1538.0998 
   53260       13.294    307.66584   -15239.788   -15245.749    129.47308   0.81107753    130.08165    1537.9402 
   53270      13.2965    305.56868   -15238.952   -15245.726    147.09764   0.81099468      128.382    1537.7952 
   53280       13.299    308.62979   -15261.742    -15245.72   -347.89088   0.81088408    128.66378    1537.6478 
   53290      13.3015    310.29082   -15261.097   -15245.705   -334.22731    0.8109043    123.03851    1537.5508 
   53300       13.304      310.435   -15235.608   -15245.678    218.72344   0.81104075    116.57869    1537.5175 
   53310      13.3065    311.79425   -15234.607    -15245.67    240.28725   0.81110751    107.22365    1537.5898 
   53320       13.309    307.16017   -15257.179   -15245.655   -250.30312   0.81108435    122.25208       1537.5 
   53330      13.3115    306.78091   -15285.424   -15245.641   -864.17789   0.81117703     126.8477    1537.3685 
   53340       13.314    308.02916    -15230.31   -15245.622    332.76474   0.81157211    129.39832    1537.2152 
   53350      13.3165    312.40233   -15203.033   -15245.597     925.3402   0.81184961    131.49707    1537.0446 
   53360       13.319    310.18659   -15251.491   -15245.572   -128.66425   0.81178089    133.05523    1536.8617 
   53370      13.3215    310.96162   -15293.469   -15245.569   -1041.2508    0.8117776    122.12232    1536.7735 
   53380       13.324    306.63474   -15210.652   -15245.544    758.80314   0.81211636     127.8627    1536.6336 
   53390      13.3265      311.794   -15182.998   -15245.543    1360.2924   0.81217375    123.14815    1536.5359 
   53400       13.329    309.74633   -15234.871   -15245.537    231.81542   0.81167547    125.69353    1536.4151 
   53410      13.3315     308.8776   -15293.687   -15245.501   -1046.5834   0.81108774       131.11    1536.2484 
   53420       13.334    311.82946    -15262.42   -15245.483   -367.77709   0.81090041    130.36623    1536.0878 
   53430      13.3365    312.52799   -15206.894   -15245.473    837.68352   0.81085586    108.00686    1536.1495 
   53440       13.339    312.95244   -15238.375    -15245.47    153.98981   0.81050872     121.6708    1536.0657 
   53450      13.3415    311.56327   -15272.484    -15245.45   -586.45043   0.81009456    121.58314    1535.9827 
   53460       13.344    310.53334   -15247.831    -15245.44   -51.866037   0.80989479    114.83928    1535.9671 
   53470      13.3465    310.08397   -15219.521   -15245.438    561.97208   0.80971567    121.12582    1535.8883 
   53480       13.349    311.20051   -15232.381    -15245.45    283.24305   0.80932392    121.99493    1535.8014 
   53490      13.3515    308.61181   -15243.986   -15245.443    31.558159   0.80879268    122.58412     1535.709 
   53500       13.354    308.84137   -15258.869   -15245.436    -290.7304   0.80825743    114.73684    1535.6942 
   53510      13.3565    307.27806   -15239.462   -15245.425    128.99739    0.8078178    114.31168    1535.6838 
   53520       13.359    308.24345   -15224.972   -15245.424    442.14324   0.80732279    125.04461     1535.569 
   53530      13.3615    310.40119   -15243.003   -15245.424    52.302527   0.80666406    130.79367    1535.4055 
   53540       13.364    310.50305   -15260.725   -15245.405   -330.65458   0.80598336    131.73812    1535.2345 
   53550      13.3665    309.77099   -15261.101   -15245.386   -338.93361   0.80544029    132.85755    1535.0549 
   53560       13.369    308.57033   -15243.823   -15245.367     33.29385   0.80503246    132.62138    1534.8772 
   53570      13.3715    312.03942   -15254.835   -15245.365   -204.05786   0.80464421    133.90678    1534.6897 
   53580       13.374     311.2508   -15267.017   -15245.341   -466.87082   0.80434534    122.92796    1534.5945 
   53590      13.3765    311.01076   -15272.805   -15245.339   -591.53426   0.80426546    134.06678     1534.406 
   53600       13.379    309.18961   -15253.209   -15245.332   -169.67852   0.80442299    132.66144    1534.2285 
   53610      13.3815    308.13465   -15251.075   -15245.329   -123.81981   0.80467829    132.70265    1534.0509 
   53620       13.384    308.06777   -15264.607    -15245.33   -415.55379   0.80501052     111.2869    1534.0732 
   53630      13.3865    308.14852   -15257.153   -15245.323   -255.16265   0.80550231    132.13918    1533.9002 
   53640       13.389    311.41688   -15246.846   -15245.321   -32.930886    0.8061143    126.88129    1533.7704 
   53650      13.3915    311.61895   -15235.444   -15245.312     213.1968   0.80674282    118.86282    1533.7138 
   53660       13.394    310.62171   -15264.796   -15245.304    -421.3829   0.80730984     116.3528    1533.6821 
   53670      13.3965     308.1392    -15264.47   -15245.316   -414.44311   0.80803063    124.62102     1533.572 
   53680       13.399    308.02632   -15226.583   -15245.306    405.57805   0.80889981    129.57797    1533.4199 
   53690      13.4015    307.42715   -15221.359   -15245.279    518.61021   0.80961205    131.31114     1533.254 
   53700       13.404    304.99087   -