LAMMPS data file via write_data, version 7 Aug 2019, timestep = 440100

6000 atoms
2 atom types

-1.3128572012753150e+02 1.7043802267396907e+02 xlo xhi
-1.3128572012753150e+02 1.7043802267396907e+02 ylo yhi
-1.3128572012753150e+02 1.7043802267396907e+02 zlo zhi

Masses

1 1.008
2 15.9994

Atoms # atomic

1893 2 6.7409897564273990e+01 -1.1639870638923361e+02 -1.2883280567221769e+02 0 1 1
757 1 6.7484059682907372e+01 -1.1630496956472061e+02 -1.2979498425804167e+02 0 1 1
4174 1 6.8049781151552793e+01 -1.1593880147320897e+02 -1.2815522356985502e+02 0 1 1
4127 1 1.2650581648225031e+02 -8.6543516954572937e+01 -1.3081554424745048e+02 -1 1 0
2463 2 1.2588774184599205e+02 -8.6403672067751486e+01 -1.3006432980708999e+02 -1 1 0
2948 1 1.2612598118765956e+02 -8.5612606556782609e+01 -1.2952556533033700e+02 -1 1 0
4961 1 4.1808816990387299e+01 -6.6100308614627650e+01 -1.2840672737348615e+02 0 0 0
4650 2 4.1641208680908420e+01 -6.7023367266125078e+01 -1.2831603715880007e+02 0 0 0
4648 1 4.1931692918576317e+01 -6.7452239756835368e+01 -1.2913402311777531e+02 0 0 0
3475 1 4.2187130083936353e+01 -6.3774572986064541e+01 -1.2812661803623789e+02 0 1 0
2537 1 4.2164382147790178e+01 -6.3731448943358316e+01 -1.2997272329466128e+02 0 1 0
456 2 4.2428184125195230e+01 -6.4123799644232093e+01 -1.2908040455083588e+02 0 0 0
5150 1 -8.1341732394483913e+01 -4.3689355337885701e+01 -1.2819035197753527e+02 0 0 0
2291 1 -8.0605305440985774e+01 -4.4026868103278289e+01 -1.2998685042358818e+02 0 0 0
4353 2 -8.0633073233384067e+01 -4.3375457121839673e+01 -1.2926609572360627e+02 0 0 0
815 1 6.8379834680424466e+01 -4.5602547448147632e+01 -1.2840047464557918e+02 0 2 0
5673 2 6.9231012137854236e+01 -4.5290735872635395e+01 -1.2795041852731730e+02 0 1 0
4265 1 -8.1053053015078376e+01 -4.2166165192609284e+01 -1.2927670558043502e+02 0 0 0
261 2 -8.1534952562342369e+01 -4.1013703563574154e+01 -1.2961591073143239e+02 1 1 0
1991 1 -8.0830955589038467e+01 -4.0185219206360031e+01 -1.2818555741495686e+02 0 1 0
5854 1 -8.1934634548140480e+01 -4.0359443434370547e+01 -1.3021412289973316e+02 0 1 0
2745 2 -8.0338305685870807e+01 -3.9309898828921206e+01 -1.2781680537103054e+02 1 0 0
2743 1 -8.0964408510127242e+01 -3.8544999274089022e+01 -1.2782323245325090e+02 1 0 0
3066 2 -1.3009768946739769e+01 -1.9231130178012890e+01 -1.3106637765710212e+02 0 0 0
1646 1 -1.3629947153629232e+01 -1.9673279054864324e+01 -1.3044170495035905e+02 0 0 0
377 1 -1.1964169268223671e+01 -1.9005305364946267e+01 -1.3054582454030287e+02 0 0 0
3015 2 -1.0615594083743005e+01 -1.8887212121237383e+01 -1.3025393717651383e+02 0 0 0
443 1 -9.9238136869942792e+00 -1.9471954363735350e+01 -1.3061336869168559e+02 0 0 0
1035 2 -9.7359827481884764e+00 -1.6551326666972926e+01 -1.3022366787626532e+02 0 0 0
835 1 -1.0272768814358770e+01 -1.7848890747725179e+01 -1.3004304478125459e+02 0 0 1
2190 2 1.0739915691340636e+02 -1.8376918275006787e+01 -1.2761298520622215e+02 1 -1 0
602 1 -1.1011344326461966e+01 -9.9721923644005557e+00 1.2228064962554186e+01 0 0 0
1203 2 -1.0775134649811704e+01 -1.2327753952424828e+01 -1.3107451034587757e+02 0 0 0
914 1 -1.0500232694956537e+01 -1.5791510885837866e+01 -1.3079371070476049e+02 0 0 0
2884 1 -8.8206943003948055e+00 -1.6288614638503176e+01 -1.3004700526151743e+02 0 0 0
1760 1 -1.0072220390127669e+01 -1.1867357560378039e+01 -1.3048221362782382e+02 0 0 0
1530 2 -1.1951060072276732e+01 -1.0272217096810380e+01 1.2229191755145450e+01 0 0 -1
2904 2 1.5664935019235000e+02 1.5164497989203198e+01 -1.3115965256022957e+02 0 0 0
52 1 1.5754231387057902e+02 1.4904872009249146e+01 -1.3117380121696215e+02 0 0 0
1822 1 -1.2628687276270128e+01 -1.1247334980315084e+02 -1.2462360700700393e+02 0 1 1
3197 1 5.2246014879229136e+01 -1.1286833689747854e+02 -1.2456504485327423e+02 0 1 0
1824 2 -1.1885559747018220e+01 -1.1196767089553984e+02 -1.2419305198003600e+02 0 1 1
116 1 -1.1113896939075005e+01 -1.1164745987275468e+02 -1.2479255454179169e+02 0 1 1
3299 1 -9.1787234616719928e+00 -1.1140609472856056e+02 -1.2530421001607556e+02 0 1 0
1620 2 -1.0041651279744329e+01 -1.1132006036183024e+02 -1.2587881570689638e+02 0 1 1
1064 1 -9.8129213996121223e+00 -1.1092766041442985e+02 -1.2674720675654248e+02 0 1 0
5733 2 1.5002908781611458e+02 -7.7627319400710206e+01 -1.2586818737899684e+02 -1 0 1
5731 1 1.4962335981776206e+02 -7.7410408589564582e+01 -1.2501260139908588e+02 -1 0 1
2186 1 1.5093815660382197e+02 -7.7184647115766012e+01 -1.2599093317703650e+02 -1 0 1
5638 1 3.8287165119161102e+01 -6.3175273574944825e+01 -1.2533319976034346e+02 0 1 1
2073 2 3.8744368715071886e+01 -6.3814887813056913e+01 -1.2589668413442735e+02 0 1 1
5170 1 3.8383285943056308e+01 -6.4016666705832492e+01 -1.2676444306066205e+02 0 1 1
4992 2 4.1529454818136259e+01 -6.3076864909720399e+01 -1.2659431646113067e+02 0 1 0
4990 1 4.0643904894320798e+01 -6.3500165743781196e+01 -1.2640041682560549e+02 0 1 0
3652 1 4.2135167982100313e+01 -6.3127223137992274e+01 -1.2584062874131712e+02 0 1 1
1872 2 -8.1180019894603419e+01 -4.7236650091489565e+01 -1.2616773547471917e+02 0 1 0
3727 1 -8.1131147491414552e+01 -4.8072831114355211e+01 -1.2571481295159518e+02 1 1 0
4573 1 -8.0979718909555856e+01 -4.7233538751293239e+01 -1.2711233057904717e+02 0 0 0
4351 1 -8.1924662660396820e+01 -4.5152664573112162e+01 -1.2677723428941076e+02 0 0 0
4815 2 -8.1795486044662013e+01 -4.4210011252758548e+01 -1.2714435226591114e+02 0 0 0
2855 1 -8.1163972830929396e+01 -4.3424006722088009e+01 -1.2653243415868772e+02 0 1 -1
5671 1 6.9350373866158634e+01 -4.4598125148267059e+01 -1.2723522736943698e+02 0 1 0
1169 1 -7.9646905368799565e+01 -4.2422428456166486e+01 -1.2664376086502949e+02 0 1 0
5877 2 -8.0267278646721252e+01 -4.2594016799602741e+01 -1.2593579588835179e+02 0 0 0
5429 1 -8.0394916703817074e+01 -4.1815942781543313e+01 -1.2533684138541240e+02 0 0 1
2236 1 -7.8814861087945530e+01 -3.9661096710235086e+01 -1.2702604363279502e+02 0 0 1
4812 2 -7.7897970760274319e+01 -4.0092936379461662e+01 -1.2677478632590635e+02 0 0 1
4762 1 -7.7051140407456472e+01 -3.9841711245705824e+01 -1.2726871202176548e+02 1 1 0
3180 2 3.0082824748291955e+01 -4.0275334029796269e+01 -1.2615909189969047e+02 0 0 0
3178 1 2.9218850159204521e+01 -4.0765711433383757e+01 -1.2598076742925583e+02 0 0 0
5959 1 3.0927419619885256e+01 -4.0762529407274940e+01 -1.2635836609530192e+02 0 0 0
2058 2 8.2093310736413230e+00 -3.2414618436493669e+01 -1.2472562284086644e+02 0 0 1
4855 1 8.6932388707287487e+00 -3.2944529878131476e+01 -1.2537725227094708e+02 0 0 1
136 1 8.5760906708834455e+00 -3.1581768815581512e+01 -1.2427853103086757e+02 0 -1 1
4771 1 1.0973857271516954e+02 -2.0313030947928283e+01 -1.2573613990076510e+02 0 0 0
122 1 -5.9988508354826138e+00 -1.9945445971392488e+01 -1.2368720780728702e+02 0 1 1
1778 1 1.0695654318503580e+02 -1.7804200767659211e+01 -1.2698640123525134e+02 0 -1 1
4931 1 1.0825282670326789e+02 -1.8837850595610178e+01 -1.2730889882615521e+02 0 -1 0
5865 2 1.0999330983858414e+02 -1.9440058754150499e+01 -1.2608057326467981e+02 1 0 0
3971 1 1.1080853955080613e+02 -1.8874925301970691e+01 -1.2578186885606655e+02 0 0 0
3831 2 3.2568664290643795e+01 1.1954899257653608e+01 -1.2413735388450284e+02 0 0 1
253 1 3.2477387436077493e+01 1.2816372491145216e+01 -1.2462683982774391e+02 0 1 2
4600 1 4.0258148079992111e+01 -1.2484076368450026e+02 -1.2193622321648564e+02 -1 0 0
3297 2 4.0114903079827599e+01 -1.2431649594418776e+02 -1.2111191708628543e+02 -1 0 0
3273 2 3.6315392826749189e+01 -1.2150851885610511e+02 -1.2023676804138414e+02 -1 0 0
4598 1 3.6212933895183852e+01 -1.2201758130381519e+02 -1.2106990820792323e+02 -1 1 0
4811 1 4.0334558061017276e+01 -1.2330370306495301e+02 -1.2110460794140664e+02 -1 0 1
2375 1 3.9658465110036673e+01 -1.2126877150648662e+02 -1.2008240481897688e+02 0 1 0
1650 2 4.0538299261832663e+01 -1.2157305559980354e+02 -1.2060279774065106e+02 0 1 0
4765 1 4.1326655140527663e+01 -1.2100998728794362e+02 -1.2055614791635531e+02 0 0 1
2329 1 -1.1027330700119848e+01 -1.1224432412057257e+02 -1.2293494810899533e+02 0 1 0
2331 2 -1.0448938717939868e+01 -1.1226424412623449e+02 -1.2199884153809721e+02 0 1 0
4346 1 -8.5294305886653348e+00 -1.1196798488920234e+02 -1.2290525553456679e+02 0 1 0
1577 1 5.1498741972696763e+01 -1.1289527420679867e+02 -1.2308246631712061e+02 0 1 0
414 2 5.2254087295945567e+01 -1.1258475325343642e+02 -1.2359031771758181e+02 0 0 1
3659 1 -1.0775605451874185e+01 -1.1233015345610515e+02 -1.2105132627380803e+02 0 1 0
2492 1 -6.9200974114369700e+00 -1.1143060625691209e+02 -1.2316489973439076e+02 0 1 1
4944 2 -7.7897920583855580e+00 -1.1178735573116208e+02 -1.2354440759999572e+02 0 1 0
5082 2 -1.1516475556047027e+02 -7.1913391105160585e+01 -1.2025811583195716e+02 1 1 1
4784 1 -1.1430468214333223e+02 -7.2102093105464888e+01 -1.2074715024286934e+02 1 0 0
5080 1 -1.1600507465478040e+02 -7.2424260553512738e+01 -1.2026145615564474e+02 1 1 1
5218 1 -9.1890048684701100e+01 -6.9747788571056645e+01 -1.2180760703426762e+02 1 1 0
1406 1 -2.1655805693293601e+01 -7.2133802239825513e+01 -1.2268798107877166e+02 0 0 1
298 1 -2.2526603828554130e+01 -7.3437610410237113e+01 -1.2198558177111676e+02 0 0 1
3330 2 -2.1741530959266314e+01 -7.3123824674077440e+01 -1.2246871504272700e+02 0 0 1
2007 2 -9.0955700754098871e+01 -6.9450967638670164e+01 -1.2206770697960253e+02 1 1 0
2080 1 -9.0972963251236962e+01 -6.8523654313908054e+01 -1.2243113583972105e+02 1 1 0
1487 1 -3.0759652196190274e+01 -1.8588514955735889e+01 -1.2137377341016919e+02 1 1 0
1158 2 -3.0715464769112856e+01 -1.9503565472427155e+01 -1.2160738877195239e+02 1 1 0
1231 1 -3.1154944850930264e+01 -2.0026891778470628e+01 -1.2244221144326605e+02 1 1 0
5843 1 -5.0325153454050167e+00 -1.8488240599574183e+01 -1.2388526013162438e+02 0 1 1
2214 2 -5.4349133695711060e+00 -1.9211661646253887e+01 -1.2328059013485046e+02 0 1 1
2875 1 -6.8841806525952933e+01 -6.7282511999931671e-01 -1.2043192030168964e+02 0 0 1
4839 2 -6.9832462681601754e+01 -4.6315944176592438e-01 -1.2022920558904012e+02 0 0 1
3829 1 3.3118881311933734e+01 1.1932750559134689e+01 -1.2332418193490892e+02 0 0 1
953 1 -3.3814237581133526e+01 -1.2085380882695925e+02 -1.1782710832287967e+02 0 1 0
3363 2 -3.3849439861570559e+01 -1.2067640764750882e+02 -1.1880652326870224e+02 0 1 0
3479 1 3.3828220213951994e+01 -1.2068840528916920e+02 -1.1845634663871803e+02 0 0 0
1343 1 3.5540627671696740e+01 -1.2143657685311453e+02 -1.1941084957325464e+02 -1 0 0
2064 2 3.4701094336792636e+01 -1.2115963715300164e+02 -1.1830580898998740e+02 0 0 0
5903 1 3.4943440152698201e+01 -1.2084048441065465e+02 -1.1734703231502203e+02 0 1 0
947 1 3.7659388816182457e+01 -1.2106162561387032e+02 -1.1940862109778790e+02 0 0 0
3153 2 3.8592316901717965e+01 -1.2079099264532272e+02 -1.1892140183945308e+02 0 0 0
620 1 3.8754332589974723e+01 -1.2128090407265559e+02 -1.1810908327138827e+02 0 0 0
295 1 -3.3693843557963646e+01 -1.1979563537076940e+02 -1.1917159334976431e+02 0 1 0
479 1 3.8397269141492586e+01 -1.1847418416925841e+02 -1.1666589606300366e+02 -1 0 0
4292 1 3.9711698316876806e+01 -1.1756538764841447e+02 -1.1818380567738956e+02 -1 1 0
2380 1 3.8712572574034795e+01 -1.1902160743724610e+02 -1.1834524334713612e+02 0 1 0
1005 2 3.8940149964274553e+01 -1.1816223067346132e+02 -1.1786036971947213e+02 -1 1 0
1236 2 -8.1044050862297226e+01 -6.2167196247440856e+01 -1.1839751223419923e+02 1 1 1
2095 1 -8.0286841999194692e+01 -6.2670744026010055e+01 -1.1873517088818129e+02 1 1 1
1234 1 -8.0741192174167026e+01 -6.1308015112764792e+01 -1.1810504822738294e+02 1 1 1
5037 2 -2.8416154959851198e+01 -6.0970292429608776e+01 -1.1786740072484328e+02 0 0 -1
3665 1 -2.7988717577959278e+01 -6.1723233447958663e+01 -1.1838080026199820e+02 0 1 -1
860 1 -2.9386095887822719e+01 -6.0931468931941239e+01 -1.1771066246350388e+02 0 0 -1
5669 1 -1.2302703830364683e+02 -4.2337281566213761e+01 -1.1579299939088074e+02 0 0 0
4456 1 2.3670139878025452e+01 -3.0595498754620650e+01 -1.1616519842812356e+02 0 0 1
5537 1 1.0455650073180408e+01 -2.0688676010766258e+01 -1.1617547670186541e+02 1 0 0
3454 1 8.7689159033820658e+00 -2.0883494554654732e+01 -1.1627156330880372e+02 1 0 0
3913 1 -7.0108459085517126e+01 -3.0113088309008162e-02 -1.1939509625262451e+02 0 1 1
5008 1 1.2064961978094126e+02 -1.3110049101009170e+02 -1.1231812269331229e+02 0 1 1
3993 2 3.5743202614431908e+01 -1.2012762342034183e+02 -1.1585071624745862e+02 -1 0 0
3295 1 3.5569486753637023e+01 -1.2073283548340143e+02 -1.1505095219790466e+02 -1 0 0
2899 1 3.6831027175573752e+01 -1.1937208278046690e+02 -1.1581826260577195e+02 -1 0 1
330 2 3.7899649714770305e+01 -1.1870752816113537e+02 -1.1561881760068268e+02 -1 1 0
2669 1 3.8218974955401421e+01 -1.1801190646790181e+02 -1.1502600955270901e+02 0 0 0
2607 2 1.0925526971903147e+02 -1.0242155762824329e+02 -1.1251770162699901e+02 -1 0 0
431 1 1.0843069387210161e+02 -1.0241692554342562e+02 -1.1299819085839783e+02 -1 0 0
4033 1 1.0230483759207092e+02 -4.7758769503882874e+01 -1.1347426951278869e+02 0 1 1
2338 1 1.0330059013180212e+02 -4.6784387516567804e+01 -1.1429767937525646e+02 0 1 1
2340 2 1.0266012143531646e+02 -4.7550925446452965e+01 -1.1434883724704866e+02 0 1 1
4013 1 1.4658765588789404e+02 -5.0749708155262184e+01 -1.1436906091783038e+02 -1 0 1
4959 2 1.4646425369574754e+02 -4.9819519172973031e+01 -1.1397655153314854e+02 -1 0 1
5618 1 1.4603075843904057e+02 -4.9654685996656326e+01 -1.1312024906719724e+02 0 0 1
3455 1 -1.2224867425330503e+02 -4.3804477062083933e+01 -1.1556623676546623e+02 0 0 0
1614 2 -1.2223356476879954e+02 -4.2895500726129896e+01 -1.1581402012035312e+02 0 0 1
2887 1 -1.6156524093754896e+01 -3.5801203415695582e+01 -1.1477707071512864e+02 -1 0 1
852 2 -1.5981765217765968e+01 -3.6573123378978920e+01 -1.1541045996280812e+02 -1 0 1
2339 1 -1.5747413244764857e+01 -3.7529260148238677e+01 -1.1531363714406241e+02 -1 0 1
161 1 1.9760618899909900e+01 -3.3109833563718482e+01 -1.1272746772472473e+02 0 0 1
837 2 2.0488493091600390e+01 -3.2785595094776923e+01 -1.1332584737906885e+02 0 0 1
1006 1 2.0500077789490177e+01 -3.1815409858144534e+01 -1.1322571765355588e+02 0 0 1
4372 1 2.1779739268089600e+01 -3.3118833388468033e+01 -1.1432036443649648e+02 0 0 1
5640 2 2.2604069190108078e+01 -3.3154703105355992e+01 -1.1497969936124933e+02 0 0 1
3523 1 2.3053895554721151e+01 -3.1563023932481798e+01 -1.1497067712949652e+02 0 0 1
5198 1 2.2476174275776458e+01 -3.3892489695716293e+01 -1.1568743107369356e+02 0 0 1
3525 2 2.3445628480788116e+01 -3.0654149683057483e+01 -1.1524226686643318e+02 0 0 1
2459 1 2.3749808957115221e+01 -2.9955336667046367e+01 -1.1408844616307778e+02 0 0 1
2633 1 2.5161401010999896e+01 -2.9000246180735658e+01 -1.1323490015812305e+02 0 0 1
3891 2 2.4175807178344570e+01 -2.9322773080524129e+01 -1.1328999707774045e+02 0 0 1
3293 1 2.3820585104961737e+01 -2.9672328332064794e+01 -1.1244672400435275e+02 0 0 1
4800 2 9.6143634482889695e+00 -2.1235173183786145e+01 -1.1591741598378589e+02 1 0 0
2960 1 -1.0959085411419410e+02 -1.6248946619013054e+01 -1.1251206395997170e+02 0 0 -1
1863 2 -1.1055017431172922e+02 -1.6084843469268932e+01 -1.1271188336373172e+02 0 0 -1
3198 2 9.2244392019519182e+01 -5.6692296747327049e+00 -1.1282376304349691e+02 -1 0 0
380 1 9.2673187278663704e+01 -4.7249415139387310e+00 -1.1258877516488108e+02 -1 -1 0
5947 1 9.1530319184805904e+01 -5.9724073361245900e+00 -1.1217119953438670e+02 -1 0 0
2750 1 -9.0156710252532548e+00 -1.3085798200492692e+02 -1.0859382190475733e+02 0 1 0
4260 2 1.1736669699138065e+02 -1.2853507190373855e+02 -1.0961734093464295e+02 0 1 1
2918 1 1.1684677910488409e+02 -1.2831187320488644e+02 -1.1038640262696219e+02 0 0 1
2715 2 1.2095187530921487e+02 -1.3090713251687504e+02 -1.1138885752839076e+02 0 0 0
1964 1 1.2023065940616743e+02 -1.3013439152789459e+02 -1.1016959488531613e+02 0 0 0
1347 2 1.1956075148209445e+02 -1.2993036059965368e+02 -1.0932423625948974e+02 0 0 0
4024 1 1.1987962776106900e+02 -1.2992943326242650e+02 -1.0838007165292265e+02 0 0 0
2296 1 1.1835437028174792e+02 -1.2920605307430961e+02 -1.0946141584170613e+02 0 1 0
3272 1 1.0933480672737758e+02 -1.0198667812240636e+02 -1.1162679187372798e+02 -1 0 0
4658 1 -1.1115453838097983e+02 -1.5469500091944283e+01 -1.1219229542627801e+02 0 0 -1
4613 1 -1.0784893989181261e+02 3.0651183763519612e+00 -1.1186289288304397e+02 -1 0 1
3784 1 -2.7130129464247943e+01 2.1410517759139793e+00 -1.1179510361204436e+02 0 1 1
5310 2 -2.6930241893410908e+01 1.4474213412331949e+00 -1.1116080746388332e+02 0 1 1
4436 1 -2.6961120713662567e+01 1.6069952320912648e+00 -1.1016096122994696e+02 0 1 1
235 1 -1.0705317497263339e+02 3.2638811546813713e+00 -1.1038035503919001e+02 0 0 0
5985 2 -1.0722205444281497e+02 3.6000777842783975e+00 -1.1129650078772363e+02 -1 0 1
1794 2 7.4187333232320924e+01 6.1543317647070523e+00 -1.0878719736233154e+02 0 -1 0
3614 1 -6.6616582148724689e+01 1.6305841984287980e+01 -1.0847212915749041e+02 0 0 1
1676 1 9.4374880755763655e+01 -1.1951189616045706e+02 -1.0658156727856129e+02 -1 1 0
1623 2 9.5302093526362114e+01 -1.1922836166901976e+02 -1.0640916658477467e+02 -1 1 0
623 1 9.5586540327259996e+01 -1.1838030549271608e+02 -1.0696802567952294e+02 -1 1 0
1415 1 9.7227353942725614e+01 -1.1700389068878896e+02 -1.0800475751818203e+02 -1 1 0
1437 2 9.6280537903155931e+01 -1.1699344858191733e+02 -1.0763656669687225e+02 -1 1 0
2738 1 9.5688192751663422e+01 -1.1633954302164709e+02 -1.0813211338758398e+02 -1 1 0
796 1 -8.8474559318842040e+01 -7.9064852504510753e+01 -1.0616560998971110e+02 1 0 1
5676 2 -8.8291258396765727e+01 -7.8620909414470560e+01 -1.0529892708552124e+02 1 0 0
965 1 -8.8905228631725862e+01 -7.8496716753364112e+01 -1.0449874267639275e+02 1 0 0
3636 2 5.7319680504663722e+01 -7.7499431247156451e+01 -1.0469403829565033e+02 0 1 1
2836 1 5.7438739380204026e+01 -7.8472263517303247e+01 -1.0450746732530847e+02 0 1 1
1265 1 -1.7780815873113184e+01 -5.4923763451594709e-01 -1.0487678478736950e+02 0 1 1
4444 1 -1.3083143860015468e+01 1.9712133807680345e+00 -1.0600488101244609e+02 0 0 0
1053 2 -1.3503016086707277e+01 1.9402836594909445e+00 -1.0512657807952715e+02 0 0 0
2360 1 -1.4088818957468504e+01 6.6265838500819996e-01 -1.0493984206444219e+02 0 1 0
331 1 7.4616505837207654e+01 5.3438045896340043e+00 -1.0838700549525407e+02 0 -1 0
1240 1 7.4125237459635343e+01 7.0342258994856195e+00 -1.0836221646222663e+02 0 0 0
1323 2 -6.6408780913153734e+01 1.7210935460490106e+01 -1.0809259587197930e+02 0 0 1
1321 1 -6.5624648133859537e+01 1.7757192697869442e+01 -1.0835917452883601e+02 0 0 1
5684 1 8.4810632311586517e+01 -1.2764787983029323e+02 -1.0099923672077310e+02 -1 1 1
2198 1 -6.8100529802105001e+01 -1.0081688778632565e+02 -1.0134946196154638e+02 1 0 0
1664 1 -5.7645064819605494e+01 -9.0642669277436823e+01 -1.0085098890475194e+02 1 1 1
2932 1 5.7976375687531174e+01 -7.6727414174916589e+01 -1.0452071529875619e+02 0 1 1
657 2 -5.2606528414357086e+01 -2.4514174422222666e+01 -1.0144567741042010e+02 0 0 -1
3472 1 -5.1918346162831980e+01 -2.4816810919113834e+01 -1.0222906668051216e+02 0 0 0
968 1 -5.2882979248985464e+01 -2.3614670613531970e+01 -1.0108705646561424e+02 0 0 0
1898 1 -1.3621977115756664e+01 -7.8504709159821573e-01 -1.0389299232938487e+02 0 0 0
3345 2 -1.7153514593042331e+01 -1.5388172345183193e-02 -1.0432128013023066e+02 0 0 0
2281 1 -1.6192300695539473e+01 -3.2839639726972791e-01 -1.0435031574074216e+02 0 1 0
5540 1 -1.5294167091706939e+01 2.6054158381301136e+00 -1.0274645139922360e+02 0 0 1
1563 2 -1.6338733803769557e+01 2.0645720462048018e+00 -1.0277212621196503e+02 0 0 0
697 1 -1.6497029356117821e+01 1.2484680212583896e+00 -1.0349707756719567e+02 0 0 0
1672 1 -1.7032861369678713e+01 2.2552460198980384e+00 -1.0210503839592057e+02 0 1 0
783 2 -1.4265225945182493e+01 -3.7095998643263783e-01 -1.0454442882187668e+02 0 0 0
4091 1 -1.3788997259961960e+01 2.8438092028151516e+00 -1.0388761404757355e+02 0 0 0
3716 1 -1.1188479985610158e+01 2.0491130080818891e+00 -1.0376614772671461e+02 -1 0 0
1544 1 -9.8151544199926946e+00 2.1626306105322612e+00 -1.0275101763762530e+02 -1 0 0
4152 2 -1.0774527217138967e+01 2.2386586053110022e+00 -1.0291213467838195e+02 -1 0 0
4538 1 -1.3272696567221161e+01 3.7470824325584999e+00 -1.0257935441856580e+02 0 0 0
4521 2 -1.4048528087850798e+01 3.2941892488466920e+00 -1.0296015153323911e+02 0 0 1
3319 1 -1.2402544736700833e+02 -1.2819971625305396e+02 -1.0042378248343324e+02 1 1 -1
5475 2 -1.2420812062300872e+02 -1.2772644236713424e+02 -9.9558688302199414e+01 1 0 0
4595 1 -1.2371710469182797e+02 -1.2820970039920451e+02 -9.8742150905236912e+01 1 1 0
4669 1 -1.2304254268323076e+02 -1.2957027602787358e+02 -9.7112688598311252e+01 1 1 -1
168 2 -1.2281984141646278e+02 -1.2882321535009169e+02 -9.7717850243252997e+01 1 0 0
2213 1 -1.2184147105562327e+02 -1.2879266982470818e+02 -9.7895159582588164e+01 1 1 0
3463 1 8.4235953092670314e+01 -1.2773801422172740e+02 -9.9447635098280358e+01 0 1 1
4983 2 8.4646019744398956e+01 -1.2819950497606561e+02 -1.0022150599738991e+02 0 1 1
5942 1 -1.2471769528881360e+02 -1.2661098110449004e+02 -9.8956218637786151e+01 1 0 0
5385 2 -1.2500735304380298e+02 -1.2578669486705002e+02 -9.8008556892036182e+01 1 1 -1
5305 1 -1.2525256101617613e+02 -1.2629278762689823e+02 -9.7159867705626851e+01 1 1 -1
4933 1 -1.2462381358333927e+02 -1.2489987187524356e+02 -9.7917332807969927e+01 1 0 0
1239 2 -6.1814936307136747e+01 -1.2537669279396101e+02 -1.0029793256554753e+02 1 0 0
3724 1 -6.0801418051566557e+01 -1.2527421789248241e+02 -1.0002455677430309e+02 1 0 0
3296 1 -6.2275626178826030e+01 -1.2488802733663239e+02 -1.0101989867465061e+02 1 0 0
4643 1 3.6891918271255975e+01 -1.2629929077835530e+02 -9.9953257364378103e+01 0 0 0
2183 1 3.6501819271438819e+01 -1.2634248638410563e+02 -9.8400356088728017e+01 0 0 0
1212 2 3.6778608788824869e+01 -1.2688873306524115e+02 -9.9157999814195051e+01 0 1 0
1089 2 -6.8335359308523763e+01 -1.0062329377637914e+02 -1.0043030956732491e+02 1 1 0
1414 1 -6.8939149504159303e+01 -1.0129891657733523e+02 -1.0001360675142418e+02 1 1 0
3737 1 -3.5765138625707920e+00 -9.9179108236490265e+01 -9.7668042741907044e+01 0 1 0
3957 2 -3.1117364740781284e+00 -9.8876033162247793e+01 -9.6875887045772032e+01 0 1 0
775 1 3.7048408801991656e+01 -9.7415783413938357e+01 -9.7149659144309794e+01 0 0 0
3088 1 -5.5825171039080658e+01 -9.3914182827159095e+01 -9.9699950099325292e+01 0 0 0
3090 2 -5.5895813224436992e+01 -9.3262596121380625e+01 -9.9001673672136789e+01 0 0 0
1141 1 -5.4676411993003441e+01 -9.3033205909644948e+01 -9.7996498989884202e+01 0 1 0
863 1 -5.3069915889161933e+01 -9.3365714595217199e+01 -9.7240255566500323e+01 0 0 0
489 2 6.5345693489768195e+01 -9.4538068260041371e+01 -9.7248503986937507e+01 0 0 0
2258 1 6.5244086829322953e+01 -9.5448121679558767e+01 -9.7560978595450450e+01 0 0 0
3208 1 6.4757862456582927e+01 -9.3160639702933636e+01 -9.8438779316199088e+01 0 0 0
1305 2 -5.7228179324345206e+01 -9.1047275531919965e+01 -1.0008392675812129e+02 0 1 1
3221 1 -5.6525489276662256e+01 -9.2474792530803967e+01 -9.9135686013413022e+01 0 1 0
3206 1 -5.6717556903847779e+01 -9.0603750669730971e+01 -9.9227221756126994e+01 0 1 1
818 1 -5.6590033933236811e+01 -8.8965180225984312e+01 -9.7931660837554546e+01 0 0 1
1350 2 -5.6099139281378086e+01 -8.9805403887162498e+01 -9.8108595648262792e+01 0 1 1
5445 2 -5.3834437975142507e+01 -9.2772199910122737e+01 -9.7294298183596567e+01 0 1 0
2921 1 -5.5158607493661520e+01 -8.9846577692827850e+01 -9.7600778663895312e+01 1 0 0
5146 1 6.4227220059130332e+01 -9.2383467052075162e+01 -9.9767371471410385e+01 0 0 0
3210 2 6.4758771610956131e+01 -9.2307530582813214e+01 -9.8972669708973882e+01 0 0 0
2519 1 6.5869918086595419e+01 -9.1158951506536368e+01 -9.8520156520482388e+01 0 0 0
4002 2 6.6386638756494960e+01 -9.0292008926089068e+01 -9.8396872987777158e+01 0 0 0
5069 1 6.5954313584648787e+01 -8.9529769906509841e+01 -9.8783288299537460e+01 0 0 0
1675 1 -9.4081906649903999e+01 -7.9302841796527019e+01 -9.7114856191975122e+01 0 0 0
1677 2 -9.3217871328008783e+01 -7.8846607956366540e+01 -9.7100774155904446e+01 0 0 0
3406 1 -9.3278055399800863e+01 -7.7861327423456117e+01 -9.7420185769089969e+01 0 0 0
39 2 -8.9298596053086882e+01 -7.8480801376090938e+01 -9.7209073916878083e+01 0 0 0
5337 2 1.0649637914387503e+02 -7.7569971963930328e+01 -9.7370042619672887e+01 0 1 0
2451 2 -9.0141341449352623e+01 -7.6358783588221996e+01 -9.8582479665938536e+01 0 0 0
4300 1 -8.9706041551199803e+01 -7.7260619948046411e+01 -9.8084788491609189e+01 0 1 1
5410 1 -9.2865616125048120e+01 -7.5429267715948640e+01 -9.7456547930652434e+01 0 0 0
5871 2 -9.2729987309818682e+01 -7.6201707603770529e+01 -9.8056164625938578e+01 0 0 1
37 1 -9.1681142523938746e+01 -7.6346759814498739e+01 -9.8367229212892568e+01 0 0 0
3224 1 -8.9505468894533948e+01 -7.5649328444285800e+01 -9.8911810508254973e+01 0 0 0
2927 1 1.0735082938325479e+02 -7.7075214438949416e+01 -9.7585250970345072e+01 1 1 0
2766 2 1.1904465864600749e+02 -3.6331292278583902e+00 -9.7123281589653374e+01 0 0 0
3577 1 1.1889905949389245e+02 -4.5128005419389297e+00 -9.6766102828375367e+01 0 0 1
2788 1 1.2209986378201998e+02 -4.4823853836191461e+00 -9.7176869117215801e+01 -1 0 0
4976 1 -8.9085352271707350e+01 4.5914477623251173e+00 -9.8415060087508493e+01 1 0 0
4737 2 -8.8547856537178205e+01 4.5550636559516136e+00 -9.9284246929385063e+01 0 0 0
4163 1 -8.8673126439194220e+01 3.8912273795829435e+00 -1.0003230223454983e+02 1 0 0
549 2 -8.6470189018377496e+01 -1.2424693869993720e+02 -9.4730651961384012e+01 1 0 0
1682 1 -8.6343277489965089e+01 -1.2458236296956827e+02 -9.5626092084687173e+01 1 0 0
3538 1 -8.5911468495229514e+01 -1.2441440005975797e+02 -9.3957639386876508e+01 1 0 0
3955 1 -2.6689493624913325e+00 -9.9493995481997359e+01 -9.6270893911296923e+01 0 1 0
1674 2 3.6171135493475646e+01 -9.7114749230091306e+01 -9.6776744916644731e+01 0 1 0
1186 1 1.2790316787910390e+02 -9.7396967265947538e+01 -9.5898069397233385e+01 0 1 0
2712 2 1.2743362723983157e+02 -9.7994339182738145e+01 -9.5292218273763297e+01 0 1 0
4099 1 1.2772442102300394e+02 -9.8179923854617087e+01 -9.4376750920096967e+01 0 1 0
5423 1 3.6190578816313007e+01 -9.6349174716964029e+01 -9.6161171239580256e+01 0 0 1
2942 1 6.6151331040146346e+01 -9.4372378890790003e+01 -9.6684386282628623e+01 -1 0 0
3900 2 -5.3770688431509413e+01 -9.0038018294073794e+01 -9.6702887807788471e+01 0 1 0
3689 1 -5.3776493882938340e+01 -9.1026685373384964e+01 -9.6926473943617538e+01 0 1 1
398 1 -5.3135262404615361e+01 -8.9939239427910366e+01 -9.5964593331522792e+01 0 1 0
4086 2 1.4749975315942001e+02 -8.9701622025635942e+01 -9.6297361591112207e+01 -1 0 1
3658 1 1.4739471203031437e+02 -9.0098569965055390e+01 -9.7205519342758578e+01 -1 0 1
1852 1 1.4804937334748334e+02 -8.8924900167703086e+01 -9.6115738077208135e+01 -1 -1 1
5672 1 -9.1358691286782346e+01 -8.0117441846812170e+01 -9.4967287521435367e+01 0 0 0
424 1 -9.0070381195216726e+01 -7.9010653197403087e+01 -9.7062107417104329e+01 0 0 0
3999 2 -9.1208095136628003e+01 -7.9591402549757831e+01 -9.5747514777951665e+01 0 0 0
3347 1 -9.2083008236441970e+01 -7.9450564761027408e+01 -9.6282663236094550e+01 0 0 0
1627 1 -8.8813653868448796e+01 -7.8675205321988670e+01 -9.6357424797602818e+01 0 0 0
3743 1 1.0640462789203951e+02 -7.8472407261432494e+01 -9.6927243250226041e+01 1 1 0
353 1 -1.7237923496803418e+01 -6.1925273346962044e+01 -9.6457210322210216e+01 0 0 0
2589 2 -1.7265409277172566e+01 -6.1503600631801589e+01 -9.5565256017209691e+01 0 0 0
521 1 -1.6774028987538173e+01 -6.0702658768114247e+01 -9.5317442998479706e+01 0 0 0
1613 1 -4.8209949794081922e+01 -5.8707278203821602e+01 -9.7086896373421638e+01 0 -1 1
4215 2 -4.7767595371840230e+01 -5.8290987263537161e+01 -9.6330687238840710e+01 0 -1 0
1733 1 -4.7996929900505606e+01 -5.7436522056495662e+01 -9.5874529124767051e+01 0 -1 0
1250 1 1.2003672983786529e+02 -3.5164026686812662e+00 -9.6981142421145591e+01 0 0 0
1131 2 1.2181341681918121e+02 -3.8572809720254497e+00 -9.6424754846515299e+01 -1 0 0
4720 1 1.2234062321592845e+02 -3.7695385625363969e+00 -9.5625050132514275e+01 -1 0 0
3239 1 -3.2627653647172735e+01 4.3914715538431324e+00 -9.3782607129828278e+01 1 0 1
2166 2 -3.2343723807688761e+01 4.9266096836403506e+00 -9.4596987964961102e+01 0 -1 0
694 1 -3.2399272289116880e+01 4.4074878118857725e+00 -9.5456674758919405e+01 1 0 0
1261 1 -3.3385045701260296e+01 8.1159643391377756e+00 -9.4660875870003778e+01 1 0 0
5062 1 -3.2312633907509920e+01 6.8026304275559539e+00 -9.4620173312002208e+01 0 -1 1
1281 2 -3.2476200439702055e+01 7.7826731407174350e+00 -9.4524298606064491e+01 1 0 0
4267 1 1.7107760270411063e+00 7.9086685471978342e+00 -9.3317737384519688e+01 0 0 1
3006 2 1.3084729867657074e+00 9.9838580649652044e+00 -9.5708615976074412e+01 0 0 1
4646 1 1.6672927007031717e+00 8.4875536248944456e+00 -9.4928591418539327e+01 0 0 0
3432 2 1.9485854764569979e+00 7.7112775613275915e+00 -9.4271738193541296e+01 0 0 0
3719 1 1.0247346323856164e+00 9.6909082959144541e+00 -9.6650438711637520e+01 -1 0 1
3949 1 1.1798072438331531e+00 1.0934788277966106e+01 -9.5332449009196921e+01 0 1 0
1054 1 1.4667156621925696e+02 -1.2875519333932422e+02 -9.2341172762212594e+01 -1 0 0
195 2 1.4757961951045829e+02 -1.2906963803005772e+02 -9.2608311818825314e+01 -1 0 0
3194 1 1.4829989778885155e+02 -1.2841890457995083e+02 -9.2511137928112447e+01 -1 0 0
2415 2 -1.0873586970059283e+02 -1.1487131026731640e+02 -8.9535171402138204e+01 1 0 1
4958 1 -1.0830675672480615e+02 -1.1513894714141483e+02 -9.0425379000242572e+01 1 1 1
369 2 -4.9175972925380023e+01 -6.4389293490101423e+01 -9.2127969467194447e+01 0 1 1
3332 1 -4.9830373120046318e+01 -6.3979327714524388e+01 -9.1591071312208982e+01 0 1 1
2182 1 -4.8412761908376567e+01 -6.4870940938688406e+01 -9.1678945992403072e+01 0 1 1
5153 1 -9.5804980110656913e+01 -5.5487036631101304e+01 -9.1741325894195739e+01 0 1 0
636 2 -9.5548819243738947e+01 -5.6459484914554452e+01 -9.1931656876885398e+01 1 0 0
3842 1 -9.4740187713806080e+01 -5.6545294488250065e+01 -9.2462676585939164e+01 0 1 0
3402 2 -1.3126564321752730e+02 -5.3687413678389007e+01 -9.0368646773052831e+01 1 0 1
4769 1 1.7002622107071895e+02 -5.3359715771712700e+01 -8.9584810276001036e+01 0 0 1