LAMMPS data file via write_data, version 7 Aug 2019, timestep = 20100

6000 atoms
2 atom types

0.0000000000000000e+00 3.9152302546132105e+01 xlo xhi
0.0000000000000000e+00 3.9152302546132105e+01 ylo yhi
0.0000000000000000e+00 3.9152302546132105e+01 zlo zhi

Masses

1 1.008
2 15.9994

Atoms # atomic

2256 2 2.9320867949396554e+00 2.3117315943807468e+00 3.2275495732949007e+00 0 1 1
2255 1 3.7522349057789914e+00 1.8914968621899999e+00 2.2194787672426171e+00 0 1 1
2188 1 3.9114551238436398e+01 1.2080537319308624e+00 3.2769890389405543e+00 0 0 0
1634 1 2.0235016696928283e+00 1.9647735360621548e+00 3.4787138542623546e+00 1 0 0
4266 2 4.2615025977837018e-01 2.0385494911121058e+00 3.8815193863944670e+00 0 0 0
2760 2 4.3985755516755116e+00 1.3005092817674320e+00 1.4409729072968303e+00 0 0 0
4057 1 7.9084628035389519e+00 3.8141209522254136e+00 1.0085817491858646e+00 0 0 0
2758 1 4.9707156624922888e+00 6.4500257862211785e-01 1.9583405905850815e+00 0 0 0
4058 1 7.5665158440959717e+00 3.7194150069829255e+00 3.0869428401288213e+00 0 0 0
5876 1 4.5623400789925173e+00 2.1321205743856257e+00 3.2130003896339726e-01 0 0 0
4059 2 8.0798023468909133e+00 3.9011509953050587e+00 1.9756316041890432e+00 0 0 0
242 1 9.6867269582684781e+00 2.7715718423022682e+00 2.6703733036174193e+00 0 0 0
2759 1 1.1053916629572615e+01 1.3300552357915219e+00 2.3206684437170484e+00 0 0 0
1470 2 1.0148326140301906e+01 1.8660200668393729e+00 2.7681829167375782e+00 0 0 0
1468 1 9.6763575385438152e+00 1.5046293068751511e+00 3.6750518517191670e+00 0 0 0
3868 1 8.0449573101389262e+00 3.9599736342638409e-01 6.9013587926070141e-01 0 1 1
1143 2 1.2032316398175144e+01 5.3543312349087180e-01 1.6489362107329364e+00 0 1 0
1141 1 1.2411895316240441e+01 3.3108380130339166e-01 7.5930381427567262e-01 0 1 0
1142 1 1.2712216543795172e+01 2.3801139768755361e-01 2.3487279177955109e+00 0 1 0
4864 1 1.4980191891281782e+01 4.0454006674503162e+00 2.9739889629298206e+00 0 0 0
4866 2 1.4449688118157860e+01 3.4736764814721477e+00 3.6116266523142531e+00 0 0 0
1085 1 1.6616706339792152e+01 2.6579935698491455e+00 2.0288191668577502e+00 0 0 0
1086 2 1.7139514230015177e+01 1.8292562115725988e+00 1.7858292285974386e+00 0 0 0
1084 1 1.8404118876396890e+01 1.8648932843521042e+00 9.3553749807739817e-01 0 0 0
2936 1 1.7432191380882735e+01 1.2596025846943288e+00 2.5807157879506151e+00 0 0 0
429 2 1.9239025110409834e+01 1.8779123904632218e+00 3.5801980294667290e-01 0 0 0
3430 1 2.0578068652961484e+01 1.8570211008658697e+00 8.9185605154823921e-01 0 0 0
3431 1 2.1915207968364562e+01 1.4366709137399056e+00 2.5055849747453878e+00 0 0 0
3432 2 2.1680366388754944e+01 1.7634780353377200e+00 1.0903758681297941e+00 0 0 0
3760 1 2.2307058653934650e+01 1.3800505565530798e+00 3.5766980610823762e-01 0 0 1
693 2 2.1589612743428528e+01 1.1795542411981341e+00 3.5667898308751838e+00 0 0 0
1612 1 2.6495537011826102e+01 1.9473522004309383e+00 3.5065964694761698e-01 0 0 1
1792 1 2.2929786280719760e+01 3.6455309751557512e+00 1.1232315044602603e+00 0 0 0
312 2 2.7792684979414556e+01 1.1903753414020615e+00 1.2511889711251813e+00 0 0 0
2705 1 2.8218260255249440e+01 2.0219897888653073e+00 1.6557957679588480e+00 0 0 0
310 1 2.8375353045411995e+01 6.2250325037107546e-01 6.2778788765166671e-01 0 0 0
580 1 1.7215601221599613e+01 1.9479241899414188e+01 1.8249109935438984e+01 0 0 0
2646 2 2.9102019105573838e+01 3.2152431195789672e+00 2.1843335722977346e+00 0 0 0
2644 1 2.9703655027489429e+01 3.3346154455985504e+00 3.0157901960597604e+00 0 0 0
4387 1 2.9781570125453293e+01 1.1136009497442053e+01 2.3228660006771093e-01 0 0 0
2193 2 3.7324821697757351e+01 1.7099343123253988e+01 1.8408468061926360e+01 0 0 0
3951 2 3.0707301444932963e+01 5.6778310883618420e-02 2.6826590651801014e+00 0 1 0
3950 1 3.2863822600600926e+01 1.0061318394054246e+00 3.7450180053577586e+00 0 1 0
1833 2 3.4746928291648615e+01 3.3080781254631546e+00 3.5009551383854731e+00 0 0 0
685 1 3.4097606077074900e+01 2.7168458399840727e+00 4.0612746802171822e+00 0 0 0
1633 1 3.8465164607937993e+01 1.2869706382317525e+00 1.1461894969759414e+00 0 0 0
4264 1 3.8876886085482603e+01 2.7419105434925211e+00 3.6589469195073874e+00 -1 0 0
2190 2 3.7285896981650886e+01 3.5160235290050461e+00 2.8471649982163960e+00 0 0 0
2189 1 3.6267123866442958e+01 3.5933996767877336e+00 3.0969143583294274e+00 0 0 0
4931 1 3.7502676956164933e+01 3.8474873457798600e+00 1.9430412496670015e+00 -1 0 0
1635 2 3.8135777237654175e+01 1.5574034753134323e+00 1.7794776966653303e-01 0 0 0
4113 2 3.8562775645507585e+01 4.9749537121514704e-02 2.6448244020858551e+00 -1 0 0
764 1 4.5378945159890671e+00 1.9537573859148953e+01 1.9342723568103992e+01 0 0 0
4111 1 3.7586456565593963e+01 7.9316095167931436e-02 2.8959905310710559e+00 -1 0 0
1062 2 3.6020607599384384e+01 4.1105170987468359e-01 3.7442075996609141e+00 0 0 0
1060 1 3.5650766268744931e+01 1.2298476271728846e+00 3.3121751248694848e+00 0 0 0
4449 2 5.4539321522660200e-01 5.0674557910693547e+00 1.8806733898460711e-02 0 0 1
1706 1 2.5904675247306752e+00 3.9130552921071411e+00 1.9929581399643268e+00 0 0 0
1707 2 2.4270323977398163e+00 4.8954334246900952e+00 1.8912051763593716e+00 0 0 0
4447 1 1.6258512828022840e+00 4.9108164876172102e+00 1.2929146405487317e+00 0 0 1
1705 1 3.4161795956894010e+00 6.2525189195513589e+00 1.2695151844724326e+00 0 0 0
1900 1 2.4491477206730616e+00 5.6536547964809785e+00 3.7473715804950452e+00 0 0 0
4448 1 1.6713880355615940e-01 6.2666860167335416e+00 1.5525319365368587e-01 0 0 1
2901 2 4.0220135913499870e+00 6.8228193649571249e+00 7.5265370616810623e-01 0 0 1
2899 1 4.9855612680082784e+00 6.6424667691162789e+00 8.3948296312227655e-01 0 0 1
3991 1 5.9492954901871924e+00 6.1437014722547696e+00 2.8835529351028852e+00 0 0 0
5196 2 6.7131972440923455e+00 6.3146241618368464e+00 1.4589619423999198e+00 0 0 0
5194 1 7.0511447389947808e+00 5.3738941105833229e+00 1.7189255897239473e+00 0 0 0
5114 1 7.2543107651808434e+00 6.9531449535055270e+00 8.5005299196571404e-01 0 0 0
3993 2 5.3332760526241181e+00 6.0327665596003239e+00 3.7011027152402587e+00 0 0 0
3673 1 5.6674949603645821e+00 5.1058073478844133e+00 4.0462419177848616e+00 0 0 0
1469 1 9.8185109524533694e+00 5.1365096824624015e+00 1.9783476310408563e+00 0 0 0
712 1 1.1196807161308762e+01 5.9571747695887884e+00 2.7679981842184773e+00 0 0 0
714 2 1.0816778241204789e+01 5.2977930579009893e+00 2.0528220101156389e+00 0 0 0
4184 1 1.0242520894856131e+01 5.5776453497227694e+00 2.3066029871167470e-01 0 0 0
713 1 1.2466264882316365e+01 4.5989699150260712e+00 7.4725238474869404e-01 0 0 0
4645 1 1.4717674058446363e+01 4.5057351239200409e+00 9.6250509769566184e-01 0 0 0
4647 2 1.5502214195859398e+01 4.5653438207495647e+00 1.5981596611668314e+00 0 0 0
5360 1 1.2813149541474097e+01 7.5150627209802003e+00 3.1839908779586286e+00 0 0 0
2159 1 1.8701789477842521e+01 4.2548427277707122e+00 1.8145084712947552e+00 0 0 0
4646 1 1.6035980217229820e+01 5.4531986934126984e+00 1.6264631151892228e+00 0 0 0
3274 1 1.7906917254794838e+01 6.4033024841573543e+00 2.7190887094655789e+00 0 0 0
3276 2 1.6971446403893985e+01 6.7440708706655217e+00 2.4597270840685308e+00 0 0 0
4181 1 1.6923991953262533e+01 7.6177290060916985e+00 1.9721867269800648e+00 0 0 0
2160 2 1.9141494764488190e+01 4.9165918764171952e+00 2.3945174445447495e+00 0 0 0
5596 1 1.9327453562332416e+01 4.4897302858893831e+00 3.8269740541662580e+00 0 0 0
2158 1 1.9946566301710170e+01 5.2588255714740848e+00 1.8819688559932890e+00 0 0 0
4235 1 2.1524604195668530e+01 7.1052072867040570e+00 1.3540621373086328e+00 0 0 0
4236 2 2.1194277718513455e+01 5.6912896424265496e+00 9.7475907082174074e-01 0 0 0
692 1 2.2114175200690706e+01 5.3410008366385595e+00 1.1936425064595499e+00 0 0 0
4234 1 2.0849540446223770e+01 5.5243779833807318e+00 4.8049240499020006e-02 0 0 0
331 1 2.4071800570287408e+01 4.3055144188194525e+00 2.2455680507354594e+00 0 0 0
1793 1 2.6302466941562823e+01 4.9146706022975710e+00 2.8939942279659632e+00 0 0 0
1794 2 2.3451073944418749e+01 4.4530387084722243e+00 1.3507285777055289e+00 0 0 0
5143 1 2.4527814260396916e+01 5.6539776000872690e+00 5.3508626433556883e-01 0 0 0
2706 2 2.7347057977853826e+01 4.9491798938084504e+00 2.4752449406166606e+00 0 0 0
5145 2 2.5165533767862481e+01 6.4051750593720946e+00 1.9779842339676079e-01 0 0 0
2704 1 2.7478119260721709e+01 5.7644809763203435e+00 1.9865159904632805e+00 0 0 0
4330 1 2.4843665228814711e+01 7.6562801409870760e+00 6.1414110887106477e-01 0 0 0
333 2 2.5084708554346086e+01 4.7859674834211727e+00 3.6235869960828015e+00 0 0 0
2645 1 2.8316570827791150e+01 3.9235766622349786e+00 2.3474759772870928e+00 0 0 0
1685 1 3.0471878547658644e+01 4.0278604199890742e+00 1.2620739009705104e+00 0 0 0
1686 2 3.1269731246444476e+01 4.3912485383168995e+00 7.2994445641190875e-01 0 0 0
2669 1 3.0950158509656006e+01 5.1801164516643388e+00 1.1445674560231080e-01 0 0 0
2594 1 3.4326220483485798e+01 3.5289597312850276e+00 2.5781300740252693e+00 0 0 0
2353 1 3.2976832178674940e+01 4.3985220294316392e+00 1.0076855340885558e+00 0 0 1
3481 1 3.4431901736458386e+01 5.9416129161816880e+00 1.6498850028819656e+00 0 0 0
3569 1 3.4213862164709703e+01 4.6314938324742103e+00 4.1308437980677890e-02 0 0 1
2355 2 3.3936822292681050e+01 4.4230262651363619e+00 1.0141396606363100e+00 0 0 1
4977 2 3.4981966118662299e+01 6.6960476726303524e+00 2.0261237444753504e+00 0 0 0
4559 1 3.4814896754881005e+01 7.6419070017577191e+00 6.1374183124063075e-01 0 0 1
1404 2 3.8497968283098913e+01 7.2800576736561853e+00 5.4909152539377115e-01 -1 0 1
1402 1 3.8301403588637299e+01 7.1723132808943033e+00 1.5214533837982609e+00 -1 0 1
4975 1 3.5905365702590331e+01 6.3866091758360914e+00 1.9897684642043350e+00 0 0 0
5847 2 3.7696594861850507e+01 6.6052788460416050e+00 3.0558564010617912e+00 -1 0 0
5846 1 3.8327582978233615e+01 7.1793297401478027e+00 3.5976525213503443e+00 -1 0 0
5845 1 3.7631652536550064e+01 5.6711631219559520e+00 3.3688347174904969e+00 -1 0 0
2790 2 1.2267987790260420e+00 1.0501152313604141e+01 2.9661632821361685e+00 0 0 0
2284 1 1.6392525242640046e-01 1.1228008014658943e+01 1.9402196882410194e+00 0 0 0
2788 1 1.1983244500392471e+00 9.7783707463832403e+00 3.6953658613362745e+00 0 0 0
1109 1 2.8151429515050967e+00 1.0022869722241971e+01 2.1667958522217301e+00 0 0 0
5817 2 3.7586855861491051e+00 9.7186728117527679e+00 2.0887563406886596e+00 0 0 0
5815 1 3.8323749541276819e+00 8.8137285685103759e+00 1.5923459679909759e+00 0 0 0
2789 1 1.3048307229528113e+00 1.1392879114764520e+01 3.4297165225659079e+00 0 0 0
1110 2 4.9855318070329266e+00 1.1318955143341917e+01 3.2077780421910645e-01 0 0 0
1108 1 4.5367093668867486e+00 1.0774403884534879e+01 9.7219766674067765e-01 0 0 0
5816 1 4.2762088457019622e+00 9.7787546926523543e+00 3.5856856603920662e+00 0 0 0
4799 1 5.9148056316552342e+00 1.1472243417313607e+01 6.2692054194370839e-01 0 0 0
2968 1 1.0751840406580754e+01 1.0259708232418664e+01 4.6805606530965155e-01 0 0 0
3445 1 1.0785498057975017e+01 1.1029024146564973e+01 2.1909129974981711e+00 0 0 0
2970 2 1.0573175089415628e+01 1.1090311010781058e+01 1.2156281648416807e+00 0 0 0
1205 1 8.0490608312036720e+00 1.1767948350681259e+01 3.3381278010591817e+00 0 0 0
1882 1 9.1823105598196584e+00 8.9233241549203139e+00 2.3958616188214801e-01 0 0 0
4668 2 8.4780659438302237e+00 8.2111413573902752e+00 1.3223317352479444e-01 0 0 0
3275 1 1.4276825938575485e+01 8.5080427866757926e+00 3.5083780839423939e+00 0 0 0
5361 2 1.3594274221495365e+01 8.3539444202853641e+00 2.6979468116110539e+00 0 0 0
5359 1 1.3607822320243882e+01 8.6711925107437153e+00 1.7497079551305592e+00 0 0 0
3298 1 1.2592466627946257e+01 9.5988610226358873e+00 3.7196253360237037e+00 0 0 0
2975 1 1.8613610554547076e+01 9.6922004830997395e+00 1.5017990325783956e+00 0 0 0
4182 2 1.7682974560792793e+01 9.4886225894357121e+00 1.1148890163039056e+00 0 0 0
4180 1 1.7148930410579677e+01 1.0336697712554544e+01 1.0594402704694219e+00 0 0 0
2393 1 1.6697438872329226e+01 1.1669113973394593e+01 3.9328012072244953e+00 0 0 0
2976 2 2.0033562613624266e+01 9.9172160736532966e+00 2.2426685661021777e+00 0 0 0
415 1 2.2248880543879782e+01 1.1708423743823072e+01 7.9283320059048379e-01 0 0 0
500 1 1.9978014688201458e+01 1.0026335191743582e+01 3.2911690540404615e+00 0 0 0
2974 1 2.0589949343958722e+01 1.0643767940512374e+01 1.7316401253080254e+00 0 0 0
390 2 2.1746917683507593e+01 8.1241660812153906e+00 1.5599927074656845e+00 0 0 0
389 1 2.0796198647971835e+01 9.0400699235073638e+00 1.9473488993714105e+00 0 0 0
4331 1 2.2771346967978332e+01 8.2588766418275217e+00 1.2615632029389372e+00 0 0 0
4332 2 2.4296940480935831e+01 8.6240700572123998e+00 8.3884999075412015e-01 0 0 0
388 1 2.4451568431296408e+01 9.1467488716960332e+00 1.8390602187532039e+00 0 0 0
1476 2 2.4607537526222043e+01 9.7353145763532698e+00 2.9649742866080699e+00 0 0 0
4024 1 2.6864485563386452e+01 8.8418070747288926e+00 2.1577630907535530e-01 0 0 0
4285 1 2.5862548560624141e+01 9.7307715322418495e+00 3.1121712713552370e+00 0 0 0
1474 1 2.3851988083642699e+01 1.0347562360682975e+01 3.3391107089515346e+00 0 0 0
4286 1 2.4532113901887215e+01 7.9324074741809172e+00 3.8087400605488804e+00 0 0 0
4287 2 2.7035222050775293e+01 9.6476583706425583e+00 3.4955572172779767e+00 0 0 0
664 1 2.4065469357904032e+01 1.0249866204530072e+01 1.6700027384858784e-01 0 0 0
5491 1 2.7852543769563727e+01 1.0612164306371334e+01 2.3187698485034608e-01 0 0 0
5493 2 2.8239829002219654e+01 1.1484568205979247e+01 6.4004676126515514e-01 0 0 0
2670 2 3.0434542800208032e+01 8.6784314592639138e+00 2.2076886786912562e+00 0 0 0
2668 1 3.0351356133476219e+01 8.5836098682705479e+00 1.1127023257249795e+00 0 0 0
1223 1 3.0004000722992167e+01 8.0670525358834784e+00 2.8970245694642318e+00 0 0 0
1475 1 2.7435130395567594e+01 1.0614350712387290e+01 3.2567428840520258e+00 0 0 0
1946 1 3.1025574407188170e+01 9.4385439171814252e+00 2.7497483314646489e+00 0 0 0
5492 1 2.8455568499035827e+01 1.1813683733189142e+01 2.2860700591772818e+00 0 0 0
2371 1 2.7650092350908000e+01 8.7988049869155933e+00 3.5835629620370950e+00 0 0 0
4976 1 3.4249403192931524e+01 7.6989654600851543e+00 3.8181571149082076e+00 0 0 0
2921 1 3.2586570919873317e+01 1.1056561737315603e+01 2.7207981382338211e+00 0 0 0
2766 2 3.2343022911449040e+01 1.0259601205108128e+01 3.2880608395836384e+00 0 0 0
2920 1 3.1656195453127886e+01 1.1758389043271720e+01 6.4687251799566736e-01 0 0 0
2765 1 3.3088087733475398e+01 9.6775009318145209e+00 3.6863308226142801e+00 0 0 0
1667 1 3.8243735963243836e+01 8.1664235486952137e+00 2.3323239003221130e-01 -1 0 1
2286 2 3.8697279250586313e+01 1.1588048336132827e+01 1.1103347371008088e+00 -1 0 0
2302 1 3.7843002011673306e+01 1.0806293147348915e+01 9.6832874608467301e-01 0 0 0
2304 2 3.6883997736393290e+01 1.0063142758502554e+01 7.3943210120847047e-01 0 0 0
3551 1 3.6231828522860440e+01 9.8155715968207087e+00 1.4452694695587887e+00 0 0 0
3550 1 3.7365935116726519e+01 9.6739640176965587e+00 4.1590547629410475e+00 0 0 0
4798 1 3.7584271891828371e+00 1.4821925912730368e+01 7.0682572006809341e-01 0 0 0
5536 1 2.7558192770879444e+00 1.3715234239074267e+01 4.1678807556196027e+00 0 0 0
4800 2 4.6549565576958951e+00 1.4555740777881240e+01 1.5218177407393398e+00 0 0 0
5537 1 4.4272189642804509e+00 1.4130582993767948e+01 2.4512538197408338e+00 0 0 0
2463 2 7.6783146848115527e+00 1.2550050897495082e+01 2.8448602945682548e+00 0 0 0
3454 1 5.6273471628431242e+00 1.4761401431643002e+01 1.3405039277975965e+00 0 0 0
2948 1 8.0100957436801643e+00 1.4965020640591790e+01 5.6338300418528109e-01 0 0 0
197 1 1.0106539041897294e+01 1.2190969741420666e+01 4.1906518678524102e-01 0 0 0
2461 1 8.3772000928169241e+00 1.3280601673912285e+01 2.8758261847751689e+00 0 0 0
1919 1 1.8976361411306371e+01 3.4453712430305282e-02 1.1725768918883311e+01 0 0 0
1197 2 1.1037490119581957e+01 1.5280084096202144e+01 3.6141315684019223e-02 0 0 0
2392 1 1.5436855019861996e+01 1.1901795683807304e+01 1.2451171545224908e+00 0 0 0
57 2 1.4864542514835094e+01 1.4700818379779641e+01 9.3817474494563924e-01 0 0 0
782 1 1.5583861101629306e+01 1.4550078810153085e+01 1.6142654983136915e+00 0 0 0
55 1 1.4388015280407313e+01 1.3795391624882438e+01 7.3792223994860284e-01 0 0 0
391 1 1.3060687887581894e+01 1.2076655645628964e+01 9.3956322386662205e-01 0 0 0
393 2 1.3992925785199702e+01 1.2223637432002032e+01 5.3650387623914741e-01 0 0 0
2394 2 1.6291971639332271e+01 1.1908559880160045e+01 1.7089987962097668e+00 0 0 0
2969 1 1.6305653179852538e+01 1.2754034120388704e+01 2.2450267290734018e+00 0 0 0
56 1 1.9251706679920080e+01 1.4481302285980313e+01 1.1998441626473157e+00 0 0 0
499 1 1.7938142294806603e+01 1.4252169857308486e+01 2.6122168923371798e+00 0 0 0
783 2 1.6873755949851219e+01 1.4274612217863003e+01 2.6268893449899715e+00 0 0 0
781 1 1.6433033093867554e+01 1.4681693212676095e+01 3.5115171779096959e+00 0 0 0
2028 2 1.8254273160136499e+01 1.3735409711544730e+01 7.4778336526586678e-02 0 0 0
2026 1 1.7752605388116628e+01 1.3082029066207346e+01 5.7040178322282675e-01 0 0 0
417 2 2.1244558834173070e+01 1.1655069671072981e+01 9.5230696508908652e-01 0 0 0
3791 1 2.2750686361432884e+01 1.4810402295769180e+01 5.5378991583538295e-01 0 0 1
672 2 1.9768556563901484e+01 1.4578437219362776e+01 2.1412093532381196e+00 0 0 0
670 1 2.0449042677174699e+01 1.5290149125528401e+01 2.2724463141340054e+00 0 0 0
671 1 2.0723840849866548e+01 1.2503151409181852e+01 1.1277010586593037e+00 0 0 0
563 1 2.0141997174930307e+01 1.3299504690561536e+01 3.4870834439757576e+00 0 0 0
3792 2 2.2013068833961533e+01 1.5616255526700748e+01 5.2863969652455634e-01 0 0 1
2389 1 2.3764060518654954e+01 1.2632807941528347e+01 2.0541768411265343e-01 0 0 0
2391 2 2.3748440332978081e+01 1.3617480321171939e+01 5.4084480902198673e-01 0 0 0
4823 1 2.3946086519349748e+01 1.3578259902660353e+01 1.5371829928327956e+00 0 0 0
4824 2 2.4402468511923725e+01 1.3586050048275219e+01 3.8337631082660120e+00 0 0 0
5714 1 2.5991106767113472e+01 1.4057967363969857e+01 3.3141807952309810e+00 0 0 0
4308 2 2.6869500897180661e+01 1.4553119713075700e+01 2.9383577168598887e+00 0 0 0
4340 1 2.7818756598044352e+01 1.2991012819186597e+01 3.2577926695223258e+00 0 0 0
579 2 2.8207382586722673e+01 1.2040333316240277e+01 3.2482478481726331e+00 0 0 0
4341 2 2.9662565598052083e+01 1.5232886276231982e+01 2.3129748896114783e+00 0 0 0
577 1 2.8676595758496614e+01 1.4939670436249100e+01 2.7943680389221903e+00 0 0 0
4339 1 3.0928366614056234e+01 1.4973322171512978e+01 1.5523741180024597e+00 0 0 0
3097 1 2.7539779538147840e+01 1.2198008026153714e+01 4.4878805126089505e-01 0 0 0
4901 1 3.3312029482905899e+01 1.2187406199911333e+01 4.5964850032767257e-01 0 0 0
2922 2 3.2420093723391325e+01 1.2168921065828604e+01 1.1847036972769227e+00 0 0 0
2258 1 3.2268404446357884e+01 1.3190300167254867e+01 1.1473571389425945e+00 0 0 0
2259 2 3.1753514807270189e+01 1.4725900690813452e+01 9.4158656503556948e-01 0 0 0
2257 1 3.2493074957071300e+01 1.5262230293984421e+01 1.2191641121155194e+00 0 0 0
2600 1 3.4799734640611121e+01 1.5411210351239507e+01 1.1842200352664142e-01 0 0 0
1115 1 3.4265501771921166e+01 1.4927658190891670e+01 2.8703520796256465e+00 0 0 0
5437 1 3.8190885959069227e+01 1.2582186083739431e+01 8.0879528217879104e-01 0 0 1
5439 2 3.7558562188556273e+01 1.3802834980735266e+01 5.0406569935158141e-01 0 0 1
4162 1 3.8173298273686278e+01 1.5403905020860982e+01 3.5548628728124516e+00 0 0 0
1116 2 3.7650107122928929e+01 1.4123791790134431e+01 3.1412859449795403e+00 0 0 0
2303 1 3.7425375685291890e+01 1.4015944957775384e+01 2.0597809578471473e+00 0 0 0
3233 1 3.7163011998212887e+01 1.3397152279167514e+01 3.8009147113246256e+00 0 0 0
599 1 3.6653296387181449e+01 1.3711649975085811e+01 8.3437366947079650e-02 0 0 0
1365 2 1.0686692676907734e+00 1.9414411122487742e+01 8.9473163606562611e-01 0 0 0
2916 2 1.7361198325654352e+00 1.7016157574976805e+01 1.7436515058322637e+00 0 0 0
5801 1 1.6015751132220659e+00 1.8072014398517336e+01 1.5071239278430588e+00 0 0 0
2915 1 1.4360132938021906e+00 1.6585473768808875e+01 2.5932956424214675e+00 0 0 0
2914 1 2.1053458507785194e+00 1.6267861176402384e+01 1.0856022607824134e+00 0 0 0
1768 1 5.9466641402079823e+00 1.8442162250543642e+01 1.9583661437767115e+00 0 0 0
1769 1 5.0505999611855863e+00 1.6791726858767280e+01 3.3535313678020984e+00 0 0 0
1770 2 5.8583006524088876e+00 1.7432114053510293e+01 2.1120313172318892e+00 0 0 0
1195 1 6.7098298169793731e+00 1.6951436953446937e+01 1.7335137438255590e+00 0 0 0
3456 2 7.6991328679611177e+00 1.5639931373415472e+01 1.2579590155820282e+00 0 0 0
4709 1 8.5391823318571234e+00 1.5811862241944601e+01 1.8040241146475942e+00 0 0 0
4708 1 1.0828898706710703e+01 1.5623807166057286e+01 2.8780397641879758e+00 0 0 0
196 1 1.0525711878350169e+01 1.5784914771380699e+01 1.2827927772758865e+00 0 0 0
4710 2 1.0144110446769176e+01 1.6053739508049887e+01 2.1734114397607454e+00 0 0 0
1915 1 1.0603643904568948e+01 1.7922787898973382e+01 2.1103296913349032e+00 0 0 0
1917 2 1.0997659688467895e+01 1.8850570331895071e+01 2.0534752017745532e+00 0 0 0
2476 1 1.1751692585470680e+01 1.8947372367945146e+01 2.7046536691820475e+00 0 0 0
3327 2 2.6769399437629062e+01 1.9538256750803239e+01 9.4961507662436464e+00 0 0 0
5401 1 1.1735597108582548e+01 1.9034881537420318e+01 8.0286508812572510e-01 0 0 0
887 1 1.4220116423978109e+01 1.6115357293597917e+01 1.9221181923079520e+00 0 0 0
4529 1 1.3310399938457449e+01 1.5948710639339851e+01 3.2167351235314507e+00 0 0 0
888 2 1.3969676366685544e+01 1.6598227667134569e+01 2.7584422436506917e+00 0 0 0
2478 2 1.3154847251787373e+01 1.9022252498300912e+01 3.8232427019833168e+00 0 0 0
2477 1 1.3489520838963083e+01 1.8066967335579651e+01 3.4412556906466794e+00 0 0 0
3850 1 1.6259638376324784e+01 1.7744442685150432e+01 2.9580510630843828e+00 0 0 0
3851 1 1.7953860942426282e+01 1.7906224314543561e+01 3.0656968592445701e+00 0 0 0
3852 2 1.7023140286207514e+01 1.8051864077972244e+01 2.4343191635262791e+00 0 0 0
152 1 1.7412005003283078e+01 1.7421699551427935e+01 6.2635415749861323e-01 0 0 0
157 1 2.2979119244109111e+01 1.9488572852768090e+01 1.2158274328585318e+01 0 0 0
5872 1 1.9709582826414920e+01 1.7178427459142348e+01 3.8015898150842387e+00 0 0 0
279 2 2.1426609874784525e+01 1.7159208359200310e+01 2.3591351145842747e+00 0 0 0
4238 1 2.2237011941960841e+01 1.7324986459896081e+01 2.9171526821025591e+00 0 0 0
277 1 2.1726113580860329e+01 1.6605419808802701e+01 1.5439894733196895e+00 0 0 0
278 1 2.0974176788246815e+01 1.8749619151085746e+01 1.7020824726325987e+00 0 0 0
4306 1 2.6737634902211802e+01 1.5515250276341039e+01 3.1057879091603113e+00 0 0 0
914 1 2.4660071050490181e+01 1.7967378593549775e+01 9.2268311295238759e-01 0 0 0
913 1 2.4545373901175715e+01 1.7939959218898810e+01 2.6009929884028651e+00 0 0 0
915 2 2.5052897830543539e+01 1.8310816574959851e+01 1.8228765135951419e+00 0 0 0
2006 1 2.6558994107501327e+01 1.8271480222599060e+01 2.5458391372973268e+00 0 0 0
2702 1 2.8916833232319309e+01 1.9440658010669271e+01 3.4862119212317855e+00 0 0 0
2208 2 2.7501021313796432e+01 1.8241570184042164e+01 2.9916220450026865e+00 0 0 0
517 1 2.9576393601888551e+01 1.6200383231400412e+01 1.8977120248394184e+00 0 0 1
2206 1 2.8191977521396701e+01 1.8070097464627985e+01 2.2611116769112161e+00 0 0 0
4462 1 3.0449147582162812e+01 1.8089626510707614e+01 1.2069156586431640e+00 0 0 0
4464 2 2.9491005177895250e+01 1.7809937478440091e+01 1.2752573721092761e+00 0 0 0
3196 1 3.0596074480765662e+01 1.9129140728216004e+01 3.8229904871675111e+00 0 0 0
3197 1 3.2729499234565566e+01 1.9397002517143033e+01 1.7765963595121452e+00 0 0 0
2601 2 3.4296491930636584e+01 1.5988888936197112e+01 1.6590935637006181e+00 0 0 0
2599 1 3.3802624558352178e+01 1.6768178185716451e+01 1.9354666334827084e+00 0 0 0
5070 2 3.3664662917531473e+01 1.8482349351934381e+01 2.8875331312929515e+00 0 0 0
5068 1 3.4333408768303485e+01 1.9059384588327976e+01 3.3815023544368996e+00 0 0 0
5069 1 3.2912785790558260e+01 1.7991001252737856e+01 3.6063610855902768e+00 0 0 0
5507 1 3.8804380935793070e+01 1.8574796124373965e+01 3.1738693341153879e-01 0 0 0
1045 1 3.6353140534580483e+01 1.8980618426694893e+01 3.4819710194130389e+00 0 0 0
3901 1 3.5929160329388665e+01 1.6876040704878257e+01 2.1123013343714852e+00 0 0 0
5506 1 3.7077358130373668e+01 1.7765528003718270e+01 1.3331035420082729e+00 0 0 0
3903 2 3.6637907804746298e+01 1.7497583152124960e+01 2.2526349353764901e+00 0 0 0
3902 1 3.7822940624897335e+01 1.6922336484498576e+01 3.2816362031463924e+00 0 0 0
2254 1 3.5855332696542357e+00 2.2492881197096728e+00 4.0479140263837330e+00 0 1 1
5761 1 1.8955494667505726e+00 3.9370952100146267e-01 6.6663619928917344e+00 0 0 0
5763 2 1.1023802834482210e+00 1.7520615322929811e+00 6.4556877172672582e+00 0 0 0
4265 1 1.0677666419722707e+00 1.8679532888327524e+00 5.4152235497731347e+00 0 0 0
1829 1 6.8304123185208920e-01 2.5542257913709063e+00 6.9393882803948932e+00 0 0 0
2210 1 2.6779396266814146e+00 2.6605058125020524e+00 7.3308225582732280e+00 0 0 0
2211 2 3.5698577768746507e+00 3.0308678459808984e+00 7.6078039972643632e+00 0 0 0
640 1 4.1989917817327465e+00 2.5407307628457816e+00 6.1867481494117929e+00 0 0 0
2166 2 6.7193865492801663e+00 5.0989634949744966e-01 5.5787312294949887e+00 0 0 0
642 2 4.6111261241124648e+00 2.1292687286499543e+00 5.3488450641949763e+00 0 0 0
3674 1 6.0552166220154939e+00 2.9036565736301543e+00 4.1010836628951406e+00 0 0 0
1484 1 5.8366460326288161e+00 1.1913848061973906e+00 5.5171509151816132e+00 0 0 0
2164 1 7.7106105755252150e+00 6.1445311238560707e-01 5.3783634196398866e+00 0 0 0
3675 2 6.8336356994999621e+00 3.4827091348618797e+00 3.9713803111775645e+00 0 0 0
5622 2 9.4425943949261821e+00 5.3347529998323207e-01 4.9037433859718877e+00 0 1 0
4997 1 1.0679814222803339e+01 2.9657381380696641e+00 6.3658474876638955e+00 0 0 0
4998 2 1.1517867786477275e+01 1.3065243606826729e+00 6.2772925608099479e+00 0 0 0
2696 1 1.0343274007541027e+01 6.5060808726792274e-01 5.5294725918202268e+00 0 0 0
2695 1 1.1388703160885742e+01 1.0623374777007275e+00 7.4261527275366896e+00 0 0 0
4996 1 1.2356712238211493e+01 1.1980981325375522e+00 5.8220308030810068e+00 0 0 0
2297 1 1.4335679223074216e+01 4.2059169892156839e-01 4.3801535497750637e+00 0 1 0
2937 2 1.4335775442144122e+01 1.2641174221146527e+00 5.0660295455587612e+00 0 0 0
2935 1 1.4205392682711361e+01 2.0279317119945155e+00 4.3969585994690332e+00 0 0 0
2000 1 1.5018339357646704e+01 1.8152442601089454e+00 6.4322703297905894e+00 0 0 0
1898 1 1.5264553364278040e+01 2.5631776365637631e+00 7.9305829494925781e+00 0 0 0
5202 2 1.5647784321258085e+01 1.9359347882284001e+00 7.2207843200829380e+00 0 0 0
1897 1 1.7047608028602159e+01 2.5484187626671484e+00 6.2767844731295295e+00 0 0 0
1899 2 1.7370886040233181e+01 2.7915966954980926e+00 5.3316132511594185e+00 0 0 0
4865 1 1.6722363843840775e+01 2.4178007918665059e+00 4.6001984689409872e+00 0 0 0
698 1 1.8404255373814006e+01 3.4581993198796539e+00 5.0809808461618342e+00 0 0 0
691 1 2.0997430846464656e+01 1.8499688327428481e+00 3.9784216825844290e+00 0 0 0
1270 1 2.3264936710640548e+01 2.0760801504627793e-01 6.2432717311781003e+00 0 0 0
332 1 2.2734787585526401e+01 8.6900965135355346e-01 4.7299262561859843e+00 0 0 0
3478 1 2.1592381343435541e+01 2.9968301147936880e+00 7.7115842521636191e+00 0 0 0
5754 2 2.2291544719589321e+01 3.8558302312289250e+00 7.5893440016696090e+00 0 0 0
1272 2 2.3589551496469348e+01 6.8141754594744453e-01 5.3303764229328507e+00 0 0 0
4913 1 2.4026440600896827e+01 2.1910544112133041e+00 5.4104123378972471e+00 0 0 0
5753 1 2.3411879880227186e+01 3.4327274660624920e+00 5.9811309389334752e+00 0 0 0
4914 2 2.4160440421432245e+01 3.1973496063359570e+00 5.4394554199556291e+00 0 0 0
1726 1 2.5984877453299177e+01 3.4498280141534998e+00 6.0987720959179841e+00 0 0 0
1728 2 2.6873417934795540e+01 3.5388838301560406e+00 6.5354751475223143e+00 0 0 0
1753 1 2.8122818344604969e+01 2.5191884011025469e+00 5.9719439638884886e+00 0 0 0
1755 2 2.8692686446273918e+01 1.7948692982164214e+00 5.5911002905589546e+00 0 0 0
2086 1 2.9307542878867228e+01 2.3209116863474435e+00 4.9230499094782862e+00 0 0 0
2088 2 3.0656020955828733e+01 3.3385295746705035e+00 4.2864855399997914e+00 0 0 0
1090 1 2.8902074463002876e+01 1.6786024430243207e-01 5.3637817385285116e+00 0 0 0
1616 1 3.1400603849947714e+01 2.7170101690245647e+00 4.2585476188835516e+00 0 0 0
1684 1 3.3203460345911772e+01 1.3982343616958923e+00 5.3444372259380462e+00 0 0 0
687 2 3.3110706587239612e+01 1.7351670063943774e+00 4.3950483010519878e+00 0 0 0
87 2 3.3546940267673165e+01 4.3854737176793768e-01 6.7297490740648103e+00 0 1 0
1022 1 3.4491676396443005e+01 5.8217996960551088e-01 7.1181362468763503e+00 0 1 0
2191 1 3.6772879450804680e+01 1.6425322093995351e+01 1.7934223311785829e+01 0 0 0
686 1 3.6042375595597640e+01 5.5247576779630980e-01 4.7085392583886225e+00 0 0 0
1023 2 3.6346819458104740e+01 4.4250888104388597e-01 6.8053347610382433e+00 0 1 0
3377 1 3.6689729373524855e+01 1.1892973693206330e+00 7.5404624762427712e+00 0 1 0
1050 2 3.9060949811431428e+01 3.8869595555911891e+00 7.3682862507611731e+00 -1 0 0
1902 2 2.7363913616547104e+00 6.4097080058802050e+00 4.3139984033644998e+00 0 0 0
1830 2 3.4094037040555323e+00 5.9675489530941181e+00 6.8415967220269751e+00 0 0 0
1828 1 3.1040041274270949e+00 6.0943002722569339e+00 5.7699288205626500e+00 0 0 0
1901 1 1.3240612493250026e+00 7.3055686452155397e+00 4.3817288408787300e+00 0 0 0
2209 1 3.4854780303194941e+00 4.0314034653436623e+00 7.5241070277697402e+00 0 0 0
5093 1 2.7929502404344149e+00 6.3497383463809607e+00 7.4857266883841653e+00 0 0 0
3992 1 3.6981202059667351e+00 6.7385397385875470e+00 3.9677448660331485e+00 0 0 0
2273 1 7.4665633442352757e+00 5.6620929054851450e+00 6.3125526561134855e+00 0 0 0
3083 1 6.1947478325962457e+00 7.2763836820030177e+00 5.9937219295037716e+00 0 0 0
2274 2 6.1897768195868252e+00 6.6178921875142223e+00 6.8904481021322432e+00 0 0 0
2272 1 5.2632792421686911e+00 6.1938378225679749e+00 6.9943320323103801e+00 0 0 0
3082 1 5.8717739412884864e+00 7.2718128135799285e+00 4.4439052371492718e+00 0 0 0